V -t * -v 1.0a5 -a 0
A -t * -n 1 -p 0 -o 0x7fffffff -c 30 -a 1
A -t * -h 1 -m 1073741823 -s 0
n -t * -a 4 -s 4 -S UP -v circle -c black -i black
n -t * -a 0 -s 0 -S UP -v circle -c black -i black
n -t * -a 1 -s 1 -S UP -v circle -c black -i black
n -t * -a 2 -s 2 -S UP -v circle -c black -i black
n -t * -a 3 -s 3 -S UP -v circle -c black -i black
l -t * -s 2 -d 0 -S UP -r 15000000 -D 0.10000000000000001 -c black
l -t * -s 3 -d 0 -S UP -r 15000000 -D 0.10000000000000001 -c black
l -t * -s 4 -d 0 -S UP -r 15000000 -D 0.10000000000000001 -c black
l -t * -s 0 -d 1 -S UP -r 10000000 -D 0.20000000000000001 -c black
+ -t 0.1 -s 2 -d 0 -p cbr -e 1000 -c 0 -i 0 -a 0 -x {2.0 1.0 0 ------- null}
- -t 0.1 -s 2 -d 0 -p cbr -e 1000 -c 0 -i 0 -a 0 -x {2.0 1.0 0 ------- null}
h -t 0.1 -s 2 -d 0 -p cbr -e 1000 -c 0 -i 0 -a 0 -x {2.0 1.0 -1 ------- null}
+ -t 0.1 -s 2 -d 0 -p cbr -e 1000 -c 0 -i 1 -a 0 -x {2.0 1.0 1 ------- null}
+ -t 0.1 -s 2 -d 0 -p cbr -e 1000 -c 0 -i 2 -a 0 -x {2.0 1.0 2 ------- null}
+ -t 0.1 -s 2 -d 0 -p cbr -e 1000 -c 0 -i 3 -a 0 -x {2.0 1.0 3 ------- null}
+ -t 0.1 -s 2 -d 0 -p cbr -e 1000 -c 0 -i 4 -a 0 -x {2.0 1.0 4 ------- null}
+ -t 0.1 -s 2 -d 0 -p cbr -e 1000 -c 0 -i 5 -a 0 -x {2.0 1.0 5 ------- null}
+ -t 0.1 -s 2 -d 0 -p cbr -e 1000 -c 0 -i 6 -a 0 -x {2.0 1.0 6 ------- null}
+ -t 0.1 -s 2 -d 0 -p cbr -e 1000 -c 0 -i 7 -a 0 -x {2.0 1.0 7 ------- null}
+ -t 0.1 -s 3 -d 0 -p cbr -e 1000 -c 0 -i 8 -a 0 -x {3.0 1.0 0 ------- null}
- -t 0.1 -s 3 -d 0 -p cbr -e 1000 -c 0 -i 8 -a 0 -x {3.0 1.0 0 ------- null}
h -t 0.1 -s 3 -d 0 -p cbr -e 1000 -c 0 -i 8 -a 0 -x {3.0 1.0 -1 ------- null}
+ -t 0.1 -s 3 -d 0 -p cbr -e 1000 -c 0 -i 9 -a 0 -x {3.0 1.0 1 ------- null}
+ -t 0.1 -s 3 -d 0 -p cbr -e 1000 -c 0 -i 10 -a 0 -x {3.0 1.0 2 ------- null}
+ -t 0.1 -s 3 -d 0 -p cbr -e 1000 -c 0 -i 11 -a 0 -x {3.0 1.0 3 ------- null}
+ -t 0.1 -s 3 -d 0 -p cbr -e 1000 -c 0 -i 12 -a 0 -x {3.0 1.0 4 ------- null}
+ -t 0.1 -s 3 -d 0 -p cbr -e 1000 -c 0 -i 13 -a 0 -x {3.0 1.0 5 ------- null}
- -t 0.100533333333333 -s 2 -d 0 -p cbr -e 1000 -c 0 -i 1 -a 0 -x {2.0 1.0 1 ------- null}
h -t 0.100533333333333 -s 2 -d 0 -p cbr -e 1000 -c 0 -i 1 -a 0 -x {2.0 1.0 -1 ------- null}
- -t 0.100533333333333 -s 3 -d 0 -p cbr -e 1000 -c 0 -i 9 -a 0 -x {3.0 1.0 1 ------- null}
h -t 0.100533333333333 -s 3 -d 0 -p cbr -e 1000 -c 0 -i 9 -a 0 -x {3.0 1.0 -1 ------- null}
- -t 0.101066666666667 -s 2 -d 0 -p cbr -e 1000 -c 0 -i 2 -a 0 -x {2.0 1.0 2 ------- null}
h -t 0.101066666666667 -s 2 -d 0 -p cbr -e 1000 -c 0 -i 2 -a 0 -x {2.0 1.0 -1 ------- null}
- -t 0.101066666666667 -s 3 -d 0 -p cbr -e 1000 -c 0 -i 10 -a 0 -x {3.0 1.0 2 ------- null}
h -t 0.101066666666667 -s 3 -d 0 -p cbr -e 1000 -c 0 -i 10 -a 0 -x {3.0 1.0 -1 ------- null}
- -t 0.1016 -s 2 -d 0 -p cbr -e 1000 -c 0 -i 3 -a 0 -x {2.0 1.0 3 ------- null}
h -t 0.1016 -s 2 -d 0 -p cbr -e 1000 -c 0 -i 3 -a 0 -x {2.0 1.0 -1 ------- null}
- -t 0.1016 -s 3 -d 0 -p cbr -e 1000 -c 0 -i 11 -a 0 -x {3.0 1.0 3 ------- null}
h -t 0.1016 -s 3 -d 0 -p cbr -e 1000 -c 0 -i 11 -a 0 -x {3.0 1.0 -1 ------- null}
- -t 0.102133333333333 -s 2 -d 0 -p cbr -e 1000 -c 0 -i 4 -a 0 -x {2.0 1.0 4 ------- null}
h -t 0.102133333333333 -s 2 -d 0 -p cbr -e 1000 -c 0 -i 4 -a 0 -x {2.0 1.0 -1 ------- null}
- -t 0.102133333333333 -s 3 -d 0 -p cbr -e 1000 -c 0 -i 12 -a 0 -x {3.0 1.0 4 ------- null}
h -t 0.102133333333333 -s 3 -d 0 -p cbr -e 1000 -c 0 -i 12 -a 0 -x {3.0 1.0 -1 ------- null}
- -t 0.102666666666667 -s 2 -d 0 -p cbr -e 1000 -c 0 -i 5 -a 0 -x {2.0 1.0 5 ------- null}
h -t 0.102666666666667 -s 2 -d 0 -p cbr -e 1000 -c 0 -i 5 -a 0 -x {2.0 1.0 -1 ------- null}
- -t 0.102666666666667 -s 3 -d 0 -p cbr -e 1000 -c 0 -i 13 -a 0 -x {3.0 1.0 5 ------- null}
h -t 0.102666666666667 -s 3 -d 0 -p cbr -e 1000 -c 0 -i 13 -a 0 -x {3.0 1.0 -1 ------- null}
- -t 0.1032 -s 2 -d 0 -p cbr -e 1000 -c 0 -i 6 -a 0 -x {2.0 1.0 6 ------- null}
h -t 0.1032 -s 2 -d 0 -p cbr -e 1000 -c 0 -i 6 -a 0 -x {2.0 1.0 -1 ------- null}
- -t 0.103733333333333 -s 2 -d 0 -p cbr -e 1000 -c 0 -i 7 -a 0 -x {2.0 1.0 7 ------- null}
h -t 0.103733333333333 -s 2 -d 0 -p cbr -e 1000 -c 0 -i 7 -a 0 -x {2.0 1.0 -1 ------- null}
+ -t 0.16 -s 3 -d 0 -p cbr -e 1000 -c 0 -i 14 -a 0 -x {3.0 1.0 6 ------- null}
- -t 0.16 -s 3 -d 0 -p cbr -e 1000 -c 0 -i 14 -a 0 -x {3.0 1.0 6 ------- null}
h -t 0.16 -s 3 -d 0 -p cbr -e 1000 -c 0 -i 14 -a 0 -x {3.0 1.0 -1 ------- null}
+ -t 0.16 -s 3 -d 0 -p cbr -e 1000 -c 0 -i 15 -a 0 -x {3.0 1.0 7 ------- null}
+ -t 0.16 -s 3 -d 0 -p cbr -e 1000 -c 0 -i 16 -a 0 -x {3.0 1.0 8 ------- null}
+ -t 0.16 -s 3 -d 0 -p cbr -e 1000 -c 0 -i 17 -a 0 -x {3.0 1.0 9 ------- null}
+ -t 0.16 -s 3 -d 0 -p cbr -e 1000 -c 0 -i 18 -a 0 -x {3.0 1.0 10 ------- null}
+ -t 0.16 -s 3 -d 0 -p cbr -e 1000 -c 0 -i 19 -a 0 -x {3.0 1.0 11 ------- null}
- -t 0.160533333333333 -s 3 -d 0 -p cbr -e 1000 -c 0 -i 15 -a 0 -x {3.0 1.0 7 ------- null}
h -t 0.160533333333333 -s 3 -d 0 -p cbr -e 1000 -c 0 -i 15 -a 0 -x {3.0 1.0 -1 ------- null}
- -t 0.161066666666667 -s 3 -d 0 -p cbr -e 1000 -c 0 -i 16 -a 0 -x {3.0 1.0 8 ------- null}
h -t 0.161066666666667 -s 3 -d 0 -p cbr -e 1000 -c 0 -i 16 -a 0 -x {3.0 1.0 -1 ------- null}
- -t 0.1616 -s 3 -d 0 -p cbr -e 1000 -c 0 -i 17 -a 0 -x {3.0 1.0 9 ------- null}
h -t 0.1616 -s 3 -d 0 -p cbr -e 1000 -c 0 -i 17 -a 0 -x {3.0 1.0 -1 ------- null}
- -t 0.162133333333333 -s 3 -d 0 -p cbr -e 1000 -c 0 -i 18 -a 0 -x {3.0 1.0 10 ------- null}
h -t 0.162133333333333 -s 3 -d 0 -p cbr -e 1000 -c 0 -i 18 -a 0 -x {3.0 1.0 -1 ------- null}
- -t 0.162666666666667 -s 3 -d 0 -p cbr -e 1000 -c 0 -i 19 -a 0 -x {3.0 1.0 11 ------- null}
h -t 0.162666666666667 -s 3 -d 0 -p cbr -e 1000 -c 0 -i 19 -a 0 -x {3.0 1.0 -1 ------- null}
+ -t 0.18 -s 2 -d 0 -p cbr -e 1000 -c 0 -i 20 -a 0 -x {2.0 1.0 8 ------- null}
- -t 0.18 -s 2 -d 0 -p cbr -e 1000 -c 0 -i 20 -a 0 -x {2.0 1.0 8 ------- null}
h -t 0.18 -s 2 -d 0 -p cbr -e 1000 -c 0 -i 20 -a 0 -x {2.0 1.0 -1 ------- null}
+ -t 0.18 -s 2 -d 0 -p cbr -e 1000 -c 0 -i 21 -a 0 -x {2.0 1.0 9 ------- null}
+ -t 0.18 -s 2 -d 0 -p cbr -e 1000 -c 0 -i 22 -a 0 -x {2.0 1.0 10 ------- null}
+ -t 0.18 -s 2 -d 0 -p cbr -e 1000 -c 0 -i 23 -a 0 -x {2.0 1.0 11 ------- null}
+ -t 0.18 -s 2 -d 0 -p cbr -e 1000 -c 0 -i 24 -a 0 -x {2.0 1.0 12 ------- null}
+ -t 0.18 -s 2 -d 0 -p cbr -e 1000 -c 0 -i 25 -a 0 -x {2.0 1.0 13 ------- null}
+ -t 0.18 -s 2 -d 0 -p cbr -e 1000 -c 0 -i 26 -a 0 -x {2.0 1.0 14 ------- null}
+ -t 0.18 -s 2 -d 0 -p cbr -e 1000 -c 0 -i 27 -a 0 -x {2.0 1.0 15 ------- null}
- -t 0.180533333333333 -s 2 -d 0 -p cbr -e 1000 -c 0 -i 21 -a 0 -x {2.0 1.0 9 ------- null}
h -t 0.180533333333333 -s 2 -d 0 -p cbr -e 1000 -c 0 -i 21 -a 0 -x {2.0 1.0 -1 ------- null}
- -t 0.181066666666667 -s 2 -d 0 -p cbr -e 1000 -c 0 -i 22 -a 0 -x {2.0 1.0 10 ------- null}
h -t 0.181066666666667 -s 2 -d 0 -p cbr -e 1000 -c 0 -i 22 -a 0 -x {2.0 1.0 -1 ------- null}
- -t 0.1816 -s 2 -d 0 -p cbr -e 1000 -c 0 -i 23 -a 0 -x {2.0 1.0 11 ------- null}
h -t 0.1816 -s 2 -d 0 -p cbr -e 1000 -c 0 -i 23 -a 0 -x {2.0 1.0 -1 ------- null}
- -t 0.182133333333333 -s 2 -d 0 -p cbr -e 1000 -c 0 -i 24 -a 0 -x {2.0 1.0 12 ------- null}
h -t 0.182133333333333 -s 2 -d 0 -p cbr -e 1000 -c 0 -i 24 -a 0 -x {2.0 1.0 -1 ------- null}
- -t 0.182666666666667 -s 2 -d 0 -p cbr -e 1000 -c 0 -i 25 -a 0 -x {2.0 1.0 13 ------- null}
h -t 0.182666666666667 -s 2 -d 0 -p cbr -e 1000 -c 0 -i 25 -a 0 -x {2.0 1.0 -1 ------- null}
- -t 0.1832 -s 2 -d 0 -p cbr -e 1000 -c 0 -i 26 -a 0 -x {2.0 1.0 14 ------- null}
h -t 0.1832 -s 2 -d 0 -p cbr -e 1000 -c 0 -i 26 -a 0 -x {2.0 1.0 -1 ------- null}
- -t 0.183733333333333 -s 2 -d 0 -p cbr -e 1000 -c 0 -i 27 -a 0 -x {2.0 1.0 15 ------- null}
h -t 0.183733333333333 -s 2 -d 0 -p cbr -e 1000 -c 0 -i 27 -a 0 -x {2.0 1.0 -1 ------- null}
r -t 0.200533333333333 -s 2 -d 0 -p cbr -e 1000 -c 0 -i 0 -a 0 -x {2.0 1.0 0 ------- null}
+ -t 0.200533333333333 -s 0 -d 1 -p cbr -e 1000 -c 0 -i 0 -a 0 -x {2.0 1.0 0 ------- null}
- -t 0.200533333333333 -s 0 -d 1 -p cbr -e 1000 -c 0 -i 0 -a 0 -x {2.0 1.0 0 ------- null}
h -t 0.200533333333333 -s 0 -d 1 -p cbr -e 1000 -c 0 -i 0 -a 0 -x {2.0 1.0 -1 ------- null}
r -t 0.200533333333333 -s 3 -d 0 -p cbr -e 1000 -c 0 -i 8 -a 0 -x {3.0 1.0 0 ------- null}
+ -t 0.200533333333333 -s 0 -d 1 -p cbr -e 1000 -c 0 -i 8 -a 0 -x {3.0 1.0 0 ------- null}
r -t 0.201066666666667 -s 2 -d 0 -p cbr -e 1000 -c 0 -i 1 -a 0 -x {2.0 1.0 1 ------- null}
+ -t 0.201066666666667 -s 0 -d 1 -p cbr -e 1000 -c 0 -i 1 -a 0 -x {2.0 1.0 1 ------- null}
r -t 0.201066666666667 -s 3 -d 0 -p cbr -e 1000 -c 0 -i 9 -a 0 -x {3.0 1.0 1 ------- null}
+ -t 0.201066666666667 -s 0 -d 1 -p cbr -e 1000 -c 0 -i 9 -a 0 -x {3.0 1.0 1 ------- null}
- -t 0.201333333333333 -s 0 -d 1 -p cbr -e 1000 -c 0 -i 8 -a 0 -x {3.0 1.0 0 ------- null}
h -t 0.201333333333333 -s 0 -d 1 -p cbr -e 1000 -c 0 -i 8 -a 0 -x {3.0 1.0 -1 ------- null}
r -t 0.2016 -s 2 -d 0 -p cbr -e 1000 -c 0 -i 2 -a 0 -x {2.0 1.0 2 ------- null}
+ -t 0.2016 -s 0 -d 1 -p cbr -e 1000 -c 0 -i 2 -a 0 -x {2.0 1.0 2 ------- null}
r -t 0.2016 -s 3 -d 0 -p cbr -e 1000 -c 0 -i 10 -a 0 -x {3.0 1.0 2 ------- null}
+ -t 0.2016 -s 0 -d 1 -p cbr -e 1000 -c 0 -i 10 -a 0 -x {3.0 1.0 2 ------- null}
r -t 0.202133333333333 -s 2 -d 0 -p cbr -e 1000 -c 0 -i 3 -a 0 -x {2.0 1.0 3 ------- null}
+ -t 0.202133333333333 -s 0 -d 1 -p cbr -e 1000 -c 0 -i 3 -a 0 -x {2.0 1.0 3 ------- null}
r -t 0.202133333333333 -s 3 -d 0 -p cbr -e 1000 -c 0 -i 11 -a 0 -x {3.0 1.0 3 ------- null}
+ -t 0.202133333333333 -s 0 -d 1 -p cbr -e 1000 -c 0 -i 11 -a 0 -x {3.0 1.0 3 ------- null}
- -t 0.202133333333333 -s 0 -d 1 -p cbr -e 1000 -c 0 -i 1 -a 0 -x {2.0 1.0 1 ------- null}
h -t 0.202133333333333 -s 0 -d 1 -p cbr -e 1000 -c 0 -i 1 -a 0 -x {2.0 1.0 -1 ------- null}
r -t 0.202666666666667 -s 2 -d 0 -p cbr -e 1000 -c 0 -i 4 -a 0 -x {2.0 1.0 4 ------- null}
+ -t 0.202666666666667 -s 0 -d 1 -p cbr -e 1000 -c 0 -i 4 -a 0 -x {2.0 1.0 4 ------- null}
r -t 0.202666666666667 -s 3 -d 0 -p cbr -e 1000 -c 0 -i 12 -a 0 -x {3.0 1.0 4 ------- null}
+ -t 0.202666666666667 -s 0 -d 1 -p cbr -e 1000 -c 0 -i 12 -a 0 -x {3.0 1.0 4 ------- null}
- -t 0.202933333333333 -s 0 -d 1 -p cbr -e 1000 -c 0 -i 9 -a 0 -x {3.0 1.0 1 ------- null}
h -t 0.202933333333333 -s 0 -d 1 -p cbr -e 1000 -c 0 -i 9 -a 0 -x {3.0 1.0 -1 ------- null}
r -t 0.2032 -s 2 -d 0 -p cbr -e 1000 -c 0 -i 5 -a 0 -x {2.0 1.0 5 ------- null}
+ -t 0.2032 -s 0 -d 1 -p cbr -e 1000 -c 0 -i 5 -a 0 -x {2.0 1.0 5 ------- null}
r -t 0.2032 -s 3 -d 0 -p cbr -e 1000 -c 0 -i 13 -a 0 -x {3.0 1.0 5 ------- null}
+ -t 0.2032 -s 0 -d 1 -p cbr -e 1000 -c 0 -i 13 -a 0 -x {3.0 1.0 5 ------- null}
r -t 0.203733333333333 -s 2 -d 0 -p cbr -e 1000 -c 0 -i 6 -a 0 -x {2.0 1.0 6 ------- null}
+ -t 0.203733333333333 -s 0 -d 1 -p cbr -e 1000 -c 0 -i 6 -a 0 -x {2.0 1.0 6 ------- null}
- -t 0.203733333333333 -s 0 -d 1 -p cbr -e 1000 -c 0 -i 2 -a 0 -x {2.0 1.0 2 ------- null}
h -t 0.203733333333333 -s 0 -d 1 -p cbr -e 1000 -c 0 -i 2 -a 0 -x {2.0 1.0 -1 ------- null}
r -t 0.204266666666667 -s 2 -d 0 -p cbr -e 1000 -c 0 -i 7 -a 0 -x {2.0 1.0 7 ------- null}
+ -t 0.204266666666667 -s 0 -d 1 -p cbr -e 1000 -c 0 -i 7 -a 0 -x {2.0 1.0 7 ------- null}
- -t 0.204533333333333 -s 0 -d 1 -p cbr -e 1000 -c 0 -i 10 -a 0 -x {3.0 1.0 2 ------- null}
h -t 0.204533333333333 -s 0 -d 1 -p cbr -e 1000 -c 0 -i 10 -a 0 -x {3.0 1.0 -1 ------- null}
- -t 0.205333333333333 -s 0 -d 1 -p cbr -e 1000 -c 0 -i 3 -a 0 -x {2.0 1.0 3 ------- null}
h -t 0.205333333333333 -s 0 -d 1 -p cbr -e 1000 -c 0 -i 3 -a 0 -x {2.0 1.0 -1 ------- null}
- -t 0.206133333333333 -s 0 -d 1 -p cbr -e 1000 -c 0 -i 11 -a 0 -x {3.0 1.0 3 ------- null}
h -t 0.206133333333333 -s 0 -d 1 -p cbr -e 1000 -c 0 -i 11 -a 0 -x {3.0 1.0 -1 ------- null}
- -t 0.206933333333333 -s 0 -d 1 -p cbr -e 1000 -c 0 -i 4 -a 0 -x {2.0 1.0 4 ------- null}
h -t 0.206933333333333 -s 0 -d 1 -p cbr -e 1000 -c 0 -i 4 -a 0 -x {2.0 1.0 -1 ------- null}
- -t 0.207733333333333 -s 0 -d 1 -p cbr -e 1000 -c 0 -i 12 -a 0 -x {3.0 1.0 4 ------- null}
h -t 0.207733333333333 -s 0 -d 1 -p cbr -e 1000 -c 0 -i 12 -a 0 -x {3.0 1.0 -1 ------- null}
- -t 0.208533333333333 -s 0 -d 1 -p cbr -e 1000 -c 0 -i 5 -a 0 -x {2.0 1.0 5 ------- null}
h -t 0.208533333333333 -s 0 -d 1 -p cbr -e 1000 -c 0 -i 5 -a 0 -x {2.0 1.0 -1 ------- null}
- -t 0.209333333333333 -s 0 -d 1 -p cbr -e 1000 -c 0 -i 13 -a 0 -x {3.0 1.0 5 ------- null}
h -t 0.209333333333333 -s 0 -d 1 -p cbr -e 1000 -c 0 -i 13 -a 0 -x {3.0 1.0 -1 ------- null}
- -t 0.210133333333333 -s 0 -d 1 -p cbr -e 1000 -c 0 -i 6 -a 0 -x {2.0 1.0 6 ------- null}
h -t 0.210133333333333 -s 0 -d 1 -p cbr -e 1000 -c 0 -i 6 -a 0 -x {2.0 1.0 -1 ------- null}
- -t 0.210933333333333 -s 0 -d 1 -p cbr -e 1000 -c 0 -i 7 -a 0 -x {2.0 1.0 7 ------- null}
h -t 0.210933333333333 -s 0 -d 1 -p cbr -e 1000 -c 0 -i 7 -a 0 -x {2.0 1.0 -1 ------- null}
+ -t 0.22 -s 3 -d 0 -p cbr -e 1000 -c 0 -i 28 -a 0 -x {3.0 1.0 12 ------- null}
- -t 0.22 -s 3 -d 0 -p cbr -e 1000 -c 0 -i 28 -a 0 -x {3.0 1.0 12 ------- null}
h -t 0.22 -s 3 -d 0 -p cbr -e 1000 -c 0 -i 28 -a 0 -x {3.0 1.0 -1 ------- null}
+ -t 0.22 -s 3 -d 0 -p cbr -e 1000 -c 0 -i 29 -a 0 -x {3.0 1.0 13 ------- null}
+ -t 0.22 -s 3 -d 0 -p cbr -e 1000 -c 0 -i 30 -a 0 -x {3.0 1.0 14 ------- null}
+ -t 0.22 -s 3 -d 0 -p cbr -e 1000 -c 0 -i 31 -a 0 -x {3.0 1.0 15 ------- null}
+ -t 0.22 -s 3 -d 0 -p cbr -e 1000 -c 0 -i 32 -a 0 -x {3.0 1.0 16 ------- null}
+ -t 0.22 -s 3 -d 0 -p cbr -e 1000 -c 0 -i 33 -a 0 -x {3.0 1.0 17 ------- null}
- -t 0.220533333333333 -s 3 -d 0 -p cbr -e 1000 -c 0 -i 29 -a 0 -x {3.0 1.0 13 ------- null}
h -t 0.220533333333333 -s 3 -d 0 -p cbr -e 1000 -c 0 -i 29 -a 0 -x {3.0 1.0 -1 ------- null}
- -t 0.221066666666667 -s 3 -d 0 -p cbr -e 1000 -c 0 -i 30 -a 0 -x {3.0 1.0 14 ------- null}
h -t 0.221066666666667 -s 3 -d 0 -p cbr -e 1000 -c 0 -i 30 -a 0 -x {3.0 1.0 -1 ------- null}
- -t 0.2216 -s 3 -d 0 -p cbr -e 1000 -c 0 -i 31 -a 0 -x {3.0 1.0 15 ------- null}
h -t 0.2216 -s 3 -d 0 -p cbr -e 1000 -c 0 -i 31 -a 0 -x {3.0 1.0 -1 ------- null}
- -t 0.222133333333333 -s 3 -d 0 -p cbr -e 1000 -c 0 -i 32 -a 0 -x {3.0 1.0 16 ------- null}
h -t 0.222133333333333 -s 3 -d 0 -p cbr -e 1000 -c 0 -i 32 -a 0 -x {3.0 1.0 -1 ------- null}
- -t 0.222666666666667 -s 3 -d 0 -p cbr -e 1000 -c 0 -i 33 -a 0 -x {3.0 1.0 17 ------- null}
h -t 0.222666666666667 -s 3 -d 0 -p cbr -e 1000 -c 0 -i 33 -a 0 -x {3.0 1.0 -1 ------- null}
+ -t 0.26 -s 2 -d 0 -p cbr -e 1000 -c 0 -i 34 -a 0 -x {2.0 1.0 16 ------- null}
- -t 0.26 -s 2 -d 0 -p cbr -e 1000 -c 0 -i 34 -a 0 -x {2.0 1.0 16 ------- null}
h -t 0.26 -s 2 -d 0 -p cbr -e 1000 -c 0 -i 34 -a 0 -x {2.0 1.0 -1 ------- null}
+ -t 0.26 -s 2 -d 0 -p cbr -e 1000 -c 0 -i 35 -a 0 -x {2.0 1.0 17 ------- null}
+ -t 0.26 -s 2 -d 0 -p cbr -e 1000 -c 0 -i 36 -a 0 -x {2.0 1.0 18 ------- null}
+ -t 0.26 -s 2 -d 0 -p cbr -e 1000 -c 0 -i 37 -a 0 -x {2.0 1.0 19 ------- null}
+ -t 0.26 -s 2 -d 0 -p cbr -e 1000 -c 0 -i 38 -a 0 -x {2.0 1.0 20 ------- null}
+ -t 0.26 -s 2 -d 0 -p cbr -e 1000 -c 0 -i 39 -a 0 -x {2.0 1.0 21 ------- null}
+ -t 0.26 -s 2 -d 0 -p cbr -e 1000 -c 0 -i 40 -a 0 -x {2.0 1.0 22 ------- null}
+ -t 0.26 -s 2 -d 0 -p cbr -e 1000 -c 0 -i 41 -a 0 -x {2.0 1.0 23 ------- null}
r -t 0.260533333333333 -s 3 -d 0 -p cbr -e 1000 -c 0 -i 14 -a 0 -x {3.0 1.0 6 ------- null}
+ -t 0.260533333333333 -s 0 -d 1 -p cbr -e 1000 -c 0 -i 14 -a 0 -x {3.0 1.0 6 ------- null}
- -t 0.260533333333333 -s 0 -d 1 -p cbr -e 1000 -c 0 -i 14 -a 0 -x {3.0 1.0 6 ------- null}
h -t 0.260533333333333 -s 0 -d 1 -p cbr -e 1000 -c 0 -i 14 -a 0 -x {3.0 1.0 -1 ------- null}
- -t 0.260533333333333 -s 2 -d 0 -p cbr -e 1000 -c 0 -i 35 -a 0 -x {2.0 1.0 17 ------- null}
h -t 0.260533333333333 -s 2 -d 0 -p cbr -e 1000 -c 0 -i 35 -a 0 -x {2.0 1.0 -1 ------- null}
r -t 0.261066666666667 -s 3 -d 0 -p cbr -e 1000 -c 0 -i 15 -a 0 -x {3.0 1.0 7 ------- null}
+ -t 0.261066666666667 -s 0 -d 1 -p cbr -e 1000 -c 0 -i 15 -a 0 -x {3.0 1.0 7 ------- null}
- -t 0.261066666666667 -s 2 -d 0 -p cbr -e 1000 -c 0 -i 36 -a 0 -x {2.0 1.0 18 ------- null}
h -t 0.261066666666667 -s 2 -d 0 -p cbr -e 1000 -c 0 -i 36 -a 0 -x {2.0 1.0 -1 ------- null}
- -t 0.261333333333333 -s 0 -d 1 -p cbr -e 1000 -c 0 -i 15 -a 0 -x {3.0 1.0 7 ------- null}
h -t 0.261333333333333 -s 0 -d 1 -p cbr -e 1000 -c 0 -i 15 -a 0 -x {3.0 1.0 -1 ------- null}
r -t 0.2616 -s 3 -d 0 -p cbr -e 1000 -c 0 -i 16 -a 0 -x {3.0 1.0 8 ------- null}
+ -t 0.2616 -s 0 -d 1 -p cbr -e 1000 -c 0 -i 16 -a 0 -x {3.0 1.0 8 ------- null}
- -t 0.2616 -s 2 -d 0 -p cbr -e 1000 -c 0 -i 37 -a 0 -x {2.0 1.0 19 ------- null}
h -t 0.2616 -s 2 -d 0 -p cbr -e 1000 -c 0 -i 37 -a 0 -x {2.0 1.0 -1 ------- null}
r -t 0.262133333333333 -s 3 -d 0 -p cbr -e 1000 -c 0 -i 17 -a 0 -x {3.0 1.0 9 ------- null}
+ -t 0.262133333333333 -s 0 -d 1 -p cbr -e 1000 -c 0 -i 17 -a 0 -x {3.0 1.0 9 ------- null}
- -t 0.262133333333333 -s 2 -d 0 -p cbr -e 1000 -c 0 -i 38 -a 0 -x {2.0 1.0 20 ------- null}
h -t 0.262133333333333 -s 2 -d 0 -p cbr -e 1000 -c 0 -i 38 -a 0 -x {2.0 1.0 -1 ------- null}
- -t 0.262133333333333 -s 0 -d 1 -p cbr -e 1000 -c 0 -i 16 -a 0 -x {3.0 1.0 8 ------- null}
h -t 0.262133333333333 -s 0 -d 1 -p cbr -e 1000 -c 0 -i 16 -a 0 -x {3.0 1.0 -1 ------- null}
r -t 0.262666666666667 -s 3 -d 0 -p cbr -e 1000 -c 0 -i 18 -a 0 -x {3.0 1.0 10 ------- null}
+ -t 0.262666666666667 -s 0 -d 1 -p cbr -e 1000 -c 0 -i 18 -a 0 -x {3.0 1.0 10 ------- null}
- -t 0.262666666666667 -s 2 -d 0 -p cbr -e 1000 -c 0 -i 39 -a 0 -x {2.0 1.0 21 ------- null}
h -t 0.262666666666667 -s 2 -d 0 -p cbr -e 1000 -c 0 -i 39 -a 0 -x {2.0 1.0 -1 ------- null}
- -t 0.262933333333333 -s 0 -d 1 -p cbr -e 1000 -c 0 -i 17 -a 0 -x {3.0 1.0 9 ------- null}
h -t 0.262933333333333 -s 0 -d 1 -p cbr -e 1000 -c 0 -i 17 -a 0 -x {3.0 1.0 -1 ------- null}
r -t 0.2632 -s 3 -d 0 -p cbr -e 1000 -c 0 -i 19 -a 0 -x {3.0 1.0 11 ------- null}
+ -t 0.2632 -s 0 -d 1 -p cbr -e 1000 -c 0 -i 19 -a 0 -x {3.0 1.0 11 ------- null}
- -t 0.2632 -s 2 -d 0 -p cbr -e 1000 -c 0 -i 40 -a 0 -x {2.0 1.0 22 ------- null}
h -t 0.2632 -s 2 -d 0 -p cbr -e 1000 -c 0 -i 40 -a 0 -x {2.0 1.0 -1 ------- null}
- -t 0.263733333333333 -s 2 -d 0 -p cbr -e 1000 -c 0 -i 41 -a 0 -x {2.0 1.0 23 ------- null}
h -t 0.263733333333333 -s 2 -d 0 -p cbr -e 1000 -c 0 -i 41 -a 0 -x {2.0 1.0 -1 ------- null}
- -t 0.263733333333333 -s 0 -d 1 -p cbr -e 1000 -c 0 -i 18 -a 0 -x {3.0 1.0 10 ------- null}
h -t 0.263733333333333 -s 0 -d 1 -p cbr -e 1000 -c 0 -i 18 -a 0 -x {3.0 1.0 -1 ------- null}
- -t 0.264533333333333 -s 0 -d 1 -p cbr -e 1000 -c 0 -i 19 -a 0 -x {3.0 1.0 11 ------- null}
h -t 0.264533333333333 -s 0 -d 1 -p cbr -e 1000 -c 0 -i 19 -a 0 -x {3.0 1.0 -1 ------- null}
+ -t 0.28 -s 3 -d 0 -p cbr -e 1000 -c 0 -i 42 -a 0 -x {3.0 1.0 18 ------- null}
- -t 0.28 -s 3 -d 0 -p cbr -e 1000 -c 0 -i 42 -a 0 -x {3.0 1.0 18 ------- null}
h -t 0.28 -s 3 -d 0 -p cbr -e 1000 -c 0 -i 42 -a 0 -x {3.0 1.0 -1 ------- null}
+ -t 0.28 -s 3 -d 0 -p cbr -e 1000 -c 0 -i 43 -a 0 -x {3.0 1.0 19 ------- null}
+ -t 0.28 -s 3 -d 0 -p cbr -e 1000 -c 0 -i 44 -a 0 -x {3.0 1.0 20 ------- null}
+ -t 0.28 -s 3 -d 0 -p cbr -e 1000 -c 0 -i 45 -a 0 -x {3.0 1.0 21 ------- null}
+ -t 0.28 -s 3 -d 0 -p cbr -e 1000 -c 0 -i 46 -a 0 -x {3.0 1.0 22 ------- null}
+ -t 0.28 -s 3 -d 0 -p cbr -e 1000 -c 0 -i 47 -a 0 -x {3.0 1.0 23 ------- null}
r -t 0.280533333333333 -s 2 -d 0 -p cbr -e 1000 -c 0 -i 20 -a 0 -x {2.0 1.0 8 ------- null}
+ -t 0.280533333333333 -s 0 -d 1 -p cbr -e 1000 -c 0 -i 20 -a 0 -x {2.0 1.0 8 ------- null}
- -t 0.280533333333333 -s 0 -d 1 -p cbr -e 1000 -c 0 -i 20 -a 0 -x {2.0 1.0 8 ------- null}
h -t 0.280533333333333 -s 0 -d 1 -p cbr -e 1000 -c 0 -i 20 -a 0 -x {2.0 1.0 -1 ------- null}
- -t 0.280533333333333 -s 3 -d 0 -p cbr -e 1000 -c 0 -i 43 -a 0 -x {3.0 1.0 19 ------- null}
h -t 0.280533333333333 -s 3 -d 0 -p cbr -e 1000 -c 0 -i 43 -a 0 -x {3.0 1.0 -1 ------- null}
r -t 0.281066666666667 -s 2 -d 0 -p cbr -e 1000 -c 0 -i 21 -a 0 -x {2.0 1.0 9 ------- null}
+ -t 0.281066666666667 -s 0 -d 1 -p cbr -e 1000 -c 0 -i 21 -a 0 -x {2.0 1.0 9 ------- null}
- -t 0.281066666666667 -s 3 -d 0 -p cbr -e 1000 -c 0 -i 44 -a 0 -x {3.0 1.0 20 ------- null}
h -t 0.281066666666667 -s 3 -d 0 -p cbr -e 1000 -c 0 -i 44 -a 0 -x {3.0 1.0 -1 ------- null}
- -t 0.281333333333333 -s 0 -d 1 -p cbr -e 1000 -c 0 -i 21 -a 0 -x {2.0 1.0 9 ------- null}
h -t 0.281333333333333 -s 0 -d 1 -p cbr -e 1000 -c 0 -i 21 -a 0 -x {2.0 1.0 -1 ------- null}
r -t 0.2816 -s 2 -d 0 -p cbr -e 1000 -c 0 -i 22 -a 0 -x {2.0 1.0 10 ------- null}
+ -t 0.2816 -s 0 -d 1 -p cbr -e 1000 -c 0 -i 22 -a 0 -x {2.0 1.0 10 ------- null}
- -t 0.2816 -s 3 -d 0 -p cbr -e 1000 -c 0 -i 45 -a 0 -x {3.0 1.0 21 ------- null}
h -t 0.2816 -s 3 -d 0 -p cbr -e 1000 -c 0 -i 45 -a 0 -x {3.0 1.0 -1 ------- null}
r -t 0.282133333333333 -s 2 -d 0 -p cbr -e 1000 -c 0 -i 23 -a 0 -x {2.0 1.0 11 ------- null}
+ -t 0.282133333333333 -s 0 -d 1 -p cbr -e 1000 -c 0 -i 23 -a 0 -x {2.0 1.0 11 ------- null}
- -t 0.282133333333333 -s 0 -d 1 -p cbr -e 1000 -c 0 -i 22 -a 0 -x {2.0 1.0 10 ------- null}
h -t 0.282133333333333 -s 0 -d 1 -p cbr -e 1000 -c 0 -i 22 -a 0 -x {2.0 1.0 -1 ------- null}
- -t 0.282133333333333 -s 3 -d 0 -p cbr -e 1000 -c 0 -i 46 -a 0 -x {3.0 1.0 22 ------- null}
h -t 0.282133333333333 -s 3 -d 0 -p cbr -e 1000 -c 0 -i 46 -a 0 -x {3.0 1.0 -1 ------- null}
r -t 0.282666666666667 -s 2 -d 0 -p cbr -e 1000 -c 0 -i 24 -a 0 -x {2.0 1.0 12 ------- null}
+ -t 0.282666666666667 -s 0 -d 1 -p cbr -e 1000 -c 0 -i 24 -a 0 -x {2.0 1.0 12 ------- null}
- -t 0.282666666666667 -s 3 -d 0 -p cbr -e 1000 -c 0 -i 47 -a 0 -x {3.0 1.0 23 ------- null}
h -t 0.282666666666667 -s 3 -d 0 -p cbr -e 1000 -c 0 -i 47 -a 0 -x {3.0 1.0 -1 ------- null}
- -t 0.282933333333333 -s 0 -d 1 -p cbr -e 1000 -c 0 -i 23 -a 0 -x {2.0 1.0 11 ------- null}
h -t 0.282933333333333 -s 0 -d 1 -p cbr -e 1000 -c 0 -i 23 -a 0 -x {2.0 1.0 -1 ------- null}
r -t 0.2832 -s 2 -d 0 -p cbr -e 1000 -c 0 -i 25 -a 0 -x {2.0 1.0 13 ------- null}
+ -t 0.2832 -s 0 -d 1 -p cbr -e 1000 -c 0 -i 25 -a 0 -x {2.0 1.0 13 ------- null}
r -t 0.283733333333333 -s 2 -d 0 -p cbr -e 1000 -c 0 -i 26 -a 0 -x {2.0 1.0 14 ------- null}
+ -t 0.283733333333333 -s 0 -d 1 -p cbr -e 1000 -c 0 -i 26 -a 0 -x {2.0 1.0 14 ------- null}
- -t 0.283733333333333 -s 0 -d 1 -p cbr -e 1000 -c 0 -i 24 -a 0 -x {2.0 1.0 12 ------- null}
h -t 0.283733333333333 -s 0 -d 1 -p cbr -e 1000 -c 0 -i 24 -a 0 -x {2.0 1.0 -1 ------- null}
r -t 0.284266666666667 -s 2 -d 0 -p cbr -e 1000 -c 0 -i 27 -a 0 -x {2.0 1.0 15 ------- null}
+ -t 0.284266666666667 -s 0 -d 1 -p cbr -e 1000 -c 0 -i 27 -a 0 -x {2.0 1.0 15 ------- null}
- -t 0.284533333333333 -s 0 -d 1 -p cbr -e 1000 -c 0 -i 25 -a 0 -x {2.0 1.0 13 ------- null}
h -t 0.284533333333333 -s 0 -d 1 -p cbr -e 1000 -c 0 -i 25 -a 0 -x {2.0 1.0 -1 ------- null}
- -t 0.285333333333333 -s 0 -d 1 -p cbr -e 1000 -c 0 -i 26 -a 0 -x {2.0 1.0 14 ------- null}
h -t 0.285333333333333 -s 0 -d 1 -p cbr -e 1000 -c 0 -i 26 -a 0 -x {2.0 1.0 -1 ------- null}
- -t 0.286133333333333 -s 0 -d 1 -p cbr -e 1000 -c 0 -i 27 -a 0 -x {2.0 1.0 15 ------- null}
h -t 0.286133333333333 -s 0 -d 1 -p cbr -e 1000 -c 0 -i 27 -a 0 -x {2.0 1.0 -1 ------- null}
r -t 0.320533333333333 -s 3 -d 0 -p cbr -e 1000 -c 0 -i 28 -a 0 -x {3.0 1.0 12 ------- null}
+ -t 0.320533333333333 -s 0 -d 1 -p cbr -e 1000 -c 0 -i 28 -a 0 -x {3.0 1.0 12 ------- null}
- -t 0.320533333333333 -s 0 -d 1 -p cbr -e 1000 -c 0 -i 28 -a 0 -x {3.0 1.0 12 ------- null}
h -t 0.320533333333333 -s 0 -d 1 -p cbr -e 1000 -c 0 -i 28 -a 0 -x {3.0 1.0 -1 ------- null}
r -t 0.321066666666667 -s 3 -d 0 -p cbr -e 1000 -c 0 -i 29 -a 0 -x {3.0 1.0 13 ------- null}
+ -t 0.321066666666667 -s 0 -d 1 -p cbr -e 1000 -c 0 -i 29 -a 0 -x {3.0 1.0 13 ------- null}
- -t 0.321333333333333 -s 0 -d 1 -p cbr -e 1000 -c 0 -i 29 -a 0 -x {3.0 1.0 13 ------- null}
h -t 0.321333333333333 -s 0 -d 1 -p cbr -e 1000 -c 0 -i 29 -a 0 -x {3.0 1.0 -1 ------- null}
r -t 0.3216 -s 3 -d 0 -p cbr -e 1000 -c 0 -i 30 -a 0 -x {3.0 1.0 14 ------- null}
+ -t 0.3216 -s 0 -d 1 -p cbr -e 1000 -c 0 -i 30 -a 0 -x {3.0 1.0 14 ------- null}
r -t 0.322133333333333 -s 3 -d 0 -p cbr -e 1000 -c 0 -i 31 -a 0 -x {3.0 1.0 15 ------- null}
+ -t 0.322133333333333 -s 0 -d 1 -p cbr -e 1000 -c 0 -i 31 -a 0 -x {3.0 1.0 15 ------- null}
- -t 0.322133333333333 -s 0 -d 1 -p cbr -e 1000 -c 0 -i 30 -a 0 -x {3.0 1.0 14 ------- null}
h -t 0.322133333333333 -s 0 -d 1 -p cbr -e 1000 -c 0 -i 30 -a 0 -x {3.0 1.0 -1 ------- null}
r -t 0.322666666666667 -s 3 -d 0 -p cbr -e 1000 -c 0 -i 32 -a 0 -x {3.0 1.0 16 ------- null}
+ -t 0.322666666666667 -s 0 -d 1 -p cbr -e 1000 -c 0 -i 32 -a 0 -x {3.0 1.0 16 ------- null}
- -t 0.322933333333333 -s 0 -d 1 -p cbr -e 1000 -c 0 -i 31 -a 0 -x {3.0 1.0 15 ------- null}
h -t 0.322933333333333 -s 0 -d 1 -p cbr -e 1000 -c 0 -i 31 -a 0 -x {3.0 1.0 -1 ------- null}
r -t 0.3232 -s 3 -d 0 -p cbr -e 1000 -c 0 -i 33 -a 0 -x {3.0 1.0 17 ------- null}
+ -t 0.3232 -s 0 -d 1 -p cbr -e 1000 -c 0 -i 33 -a 0 -x {3.0 1.0 17 ------- null}
- -t 0.323733333333333 -s 0 -d 1 -p cbr -e 1000 -c 0 -i 32 -a 0 -x {3.0 1.0 16 ------- null}
h -t 0.323733333333333 -s 0 -d 1 -p cbr -e 1000 -c 0 -i 32 -a 0 -x {3.0 1.0 -1 ------- null}
- -t 0.324533333333333 -s 0 -d 1 -p cbr -e 1000 -c 0 -i 33 -a 0 -x {3.0 1.0 17 ------- null}
h -t 0.324533333333333 -s 0 -d 1 -p cbr -e 1000 -c 0 -i 33 -a 0 -x {3.0 1.0 -1 ------- null}
+ -t 0.34 -s 2 -d 0 -p cbr -e 1000 -c 0 -i 48 -a 0 -x {2.0 1.0 24 ------- null}
- -t 0.34 -s 2 -d 0 -p cbr -e 1000 -c 0 -i 48 -a 0 -x {2.0 1.0 24 ------- null}
h -t 0.34 -s 2 -d 0 -p cbr -e 1000 -c 0 -i 48 -a 0 -x {2.0 1.0 -1 ------- null}
+ -t 0.34 -s 2 -d 0 -p cbr -e 1000 -c 0 -i 49 -a 0 -x {2.0 1.0 25 ------- null}
+ -t 0.34 -s 2 -d 0 -p cbr -e 1000 -c 0 -i 50 -a 0 -x {2.0 1.0 26 ------- null}
+ -t 0.34 -s 2 -d 0 -p cbr -e 1000 -c 0 -i 51 -a 0 -x {2.0 1.0 27 ------- null}
+ -t 0.34 -s 2 -d 0 -p cbr -e 1000 -c 0 -i 52 -a 0 -x {2.0 1.0 28 ------- null}
+ -t 0.34 -s 2 -d 0 -p cbr -e 1000 -c 0 -i 53 -a 0 -x {2.0 1.0 29 ------- null}
+ -t 0.34 -s 2 -d 0 -p cbr -e 1000 -c 0 -i 54 -a 0 -x {2.0 1.0 30 ------- null}
+ -t 0.34 -s 2 -d 0 -p cbr -e 1000 -c 0 -i 55 -a 0 -x {2.0 1.0 31 ------- null}
+ -t 0.34 -s 3 -d 0 -p cbr -e 1000 -c 0 -i 56 -a 0 -x {3.0 1.0 24 ------- null}
- -t 0.34 -s 3 -d 0 -p cbr -e 1000 -c 0 -i 56 -a 0 -x {3.0 1.0 24 ------- null}
h -t 0.34 -s 3 -d 0 -p cbr -e 1000 -c 0 -i 56 -a 0 -x {3.0 1.0 -1 ------- null}
+ -t 0.34 -s 3 -d 0 -p cbr -e 1000 -c 0 -i 57 -a 0 -x {3.0 1.0 25 ------- null}
+ -t 0.34 -s 3 -d 0 -p cbr -e 1000 -c 0 -i 58 -a 0 -x {3.0 1.0 26 ------- null}
+ -t 0.34 -s 3 -d 0 -p cbr -e 1000 -c 0 -i 59 -a 0 -x {3.0 1.0 27 ------- null}
+ -t 0.34 -s 3 -d 0 -p cbr -e 1000 -c 0 -i 60 -a 0 -x {3.0 1.0 28 ------- null}
+ -t 0.34 -s 3 -d 0 -p cbr -e 1000 -c 0 -i 61 -a 0 -x {3.0 1.0 29 ------- null}
- -t 0.340533333333333 -s 2 -d 0 -p cbr -e 1000 -c 0 -i 49 -a 0 -x {2.0 1.0 25 ------- null}
h -t 0.340533333333333 -s 2 -d 0 -p cbr -e 1000 -c 0 -i 49 -a 0 -x {2.0 1.0 -1 ------- null}
- -t 0.340533333333333 -s 3 -d 0 -p cbr -e 1000 -c 0 -i 57 -a 0 -x {3.0 1.0 25 ------- null}
h -t 0.340533333333333 -s 3 -d 0 -p cbr -e 1000 -c 0 -i 57 -a 0 -x {3.0 1.0 -1 ------- null}
- -t 0.341066666666667 -s 2 -d 0 -p cbr -e 1000 -c 0 -i 50 -a 0 -x {2.0 1.0 26 ------- null}
h -t 0.341066666666667 -s 2 -d 0 -p cbr -e 1000 -c 0 -i 50 -a 0 -x {2.0 1.0 -1 ------- null}
- -t 0.341066666666667 -s 3 -d 0 -p cbr -e 1000 -c 0 -i 58 -a 0 -x {3.0 1.0 26 ------- null}
h -t 0.341066666666667 -s 3 -d 0 -p cbr -e 1000 -c 0 -i 58 -a 0 -x {3.0 1.0 -1 ------- null}
- -t 0.3416 -s 2 -d 0 -p cbr -e 1000 -c 0 -i 51 -a 0 -x {2.0 1.0 27 ------- null}
h -t 0.3416 -s 2 -d 0 -p cbr -e 1000 -c 0 -i 51 -a 0 -x {2.0 1.0 -1 ------- null}
- -t 0.3416 -s 3 -d 0 -p cbr -e 1000 -c 0 -i 59 -a 0 -x {3.0 1.0 27 ------- null}
h -t 0.3416 -s 3 -d 0 -p cbr -e 1000 -c 0 -i 59 -a 0 -x {3.0 1.0 -1 ------- null}
- -t 0.342133333333333 -s 2 -d 0 -p cbr -e 1000 -c 0 -i 52 -a 0 -x {2.0 1.0 28 ------- null}
h -t 0.342133333333333 -s 2 -d 0 -p cbr -e 1000 -c 0 -i 52 -a 0 -x {2.0 1.0 -1 ------- null}
- -t 0.342133333333333 -s 3 -d 0 -p cbr -e 1000 -c 0 -i 60 -a 0 -x {3.0 1.0 28 ------- null}
h -t 0.342133333333333 -s 3 -d 0 -p cbr -e 1000 -c 0 -i 60 -a 0 -x {3.0 1.0 -1 ------- null}
- -t 0.342666666666667 -s 2 -d 0 -p cbr -e 1000 -c 0 -i 53 -a 0 -x {2.0 1.0 29 ------- null}
h -t 0.342666666666667 -s 2 -d 0 -p cbr -e 1000 -c 0 -i 53 -a 0 -x {2.0 1.0 -1 ------- null}
- -t 0.342666666666667 -s 3 -d 0 -p cbr -e 1000 -c 0 -i 61 -a 0 -x {3.0 1.0 29 ------- null}
h -t 0.342666666666667 -s 3 -d 0 -p cbr -e 1000 -c 0 -i 61 -a 0 -x {3.0 1.0 -1 ------- null}
- -t 0.3432 -s 2 -d 0 -p cbr -e 1000 -c 0 -i 54 -a 0 -x {2.0 1.0 30 ------- null}
h -t 0.3432 -s 2 -d 0 -p cbr -e 1000 -c 0 -i 54 -a 0 -x {2.0 1.0 -1 ------- null}
- -t 0.343733333333333 -s 2 -d 0 -p cbr -e 1000 -c 0 -i 55 -a 0 -x {2.0 1.0 31 ------- null}
h -t 0.343733333333333 -s 2 -d 0 -p cbr -e 1000 -c 0 -i 55 -a 0 -x {2.0 1.0 -1 ------- null}
r -t 0.360533333333333 -s 2 -d 0 -p cbr -e 1000 -c 0 -i 34 -a 0 -x {2.0 1.0 16 ------- null}
+ -t 0.360533333333333 -s 0 -d 1 -p cbr -e 1000 -c 0 -i 34 -a 0 -x {2.0 1.0 16 ------- null}
- -t 0.360533333333333 -s 0 -d 1 -p cbr -e 1000 -c 0 -i 34 -a 0 -x {2.0 1.0 16 ------- null}
h -t 0.360533333333333 -s 0 -d 1 -p cbr -e 1000 -c 0 -i 34 -a 0 -x {2.0 1.0 -1 ------- null}
r -t 0.361066666666667 -s 2 -d 0 -p cbr -e 1000 -c 0 -i 35 -a 0 -x {2.0 1.0 17 ------- null}
+ -t 0.361066666666667 -s 0 -d 1 -p cbr -e 1000 -c 0 -i 35 -a 0 -x {2.0 1.0 17 ------- null}
- -t 0.361333333333333 -s 0 -d 1 -p cbr -e 1000 -c 0 -i 35 -a 0 -x {2.0 1.0 17 ------- null}
h -t 0.361333333333333 -s 0 -d 1 -p cbr -e 1000 -c 0 -i 35 -a 0 -x {2.0 1.0 -1 ------- null}
r -t 0.3616 -s 2 -d 0 -p cbr -e 1000 -c 0 -i 36 -a 0 -x {2.0 1.0 18 ------- null}
+ -t 0.3616 -s 0 -d 1 -p cbr -e 1000 -c 0 -i 36 -a 0 -x {2.0 1.0 18 ------- null}
r -t 0.362133333333333 -s 2 -d 0 -p cbr -e 1000 -c 0 -i 37 -a 0 -x {2.0 1.0 19 ------- null}
+ -t 0.362133333333333 -s 0 -d 1 -p cbr -e 1000 -c 0 -i 37 -a 0 -x {2.0 1.0 19 ------- null}