+ 0.1 2 0 cbr 1000 ------- 0 2.0 1.0 0 0
- 0.1 2 0 cbr 1000 ------- 0 2.0 1.0 0 0
+ 0.1 2 0 cbr 1000 ------- 0 2.0 1.0 1 1
+ 0.1 2 0 cbr 1000 ------- 0 2.0 1.0 2 2
+ 0.1 2 0 cbr 1000 ------- 0 2.0 1.0 3 3
+ 0.1 2 0 cbr 1000 ------- 0 2.0 1.0 4 4
+ 0.1 2 0 cbr 1000 ------- 0 2.0 1.0 5 5
+ 0.1 2 0 cbr 1000 ------- 0 2.0 1.0 6 6
+ 0.1 2 0 cbr 1000 ------- 0 2.0 1.0 7 7
+ 0.1 3 0 cbr 1000 ------- 0 3.0 1.0 0 8
- 0.1 3 0 cbr 1000 ------- 0 3.0 1.0 0 8
+ 0.1 3 0 cbr 1000 ------- 0 3.0 1.0 1 9
+ 0.1 3 0 cbr 1000 ------- 0 3.0 1.0 2 10
+ 0.1 3 0 cbr 1000 ------- 0 3.0 1.0 3 11
+ 0.1 3 0 cbr 1000 ------- 0 3.0 1.0 4 12
+ 0.1 3 0 cbr 1000 ------- 0 3.0 1.0 5 13
- 0.100533 2 0 cbr 1000 ------- 0 2.0 1.0 1 1
- 0.100533 3 0 cbr 1000 ------- 0 3.0 1.0 1 9
- 0.101067 2 0 cbr 1000 ------- 0 2.0 1.0 2 2
- 0.101067 3 0 cbr 1000 ------- 0 3.0 1.0 2 10
- 0.1016 2 0 cbr 1000 ------- 0 2.0 1.0 3 3
- 0.1016 3 0 cbr 1000 ------- 0 3.0 1.0 3 11
- 0.102133 2 0 cbr 1000 ------- 0 2.0 1.0 4 4
- 0.102133 3 0 cbr 1000 ------- 0 3.0 1.0 4 12
- 0.102667 2 0 cbr 1000 ------- 0 2.0 1.0 5 5
- 0.102667 3 0 cbr 1000 ------- 0 3.0 1.0 5 13
- 0.1032 2 0 cbr 1000 ------- 0 2.0 1.0 6 6
- 0.103733 2 0 cbr 1000 ------- 0 2.0 1.0 7 7
+ 0.16 3 0 cbr 1000 ------- 0 3.0 1.0 6 14
- 0.16 3 0 cbr 1000 ------- 0 3.0 1.0 6 14
+ 0.16 3 0 cbr 1000 ------- 0 3.0 1.0 7 15
+ 0.16 3 0 cbr 1000 ------- 0 3.0 1.0 8 16
+ 0.16 3 0 cbr 1000 ------- 0 3.0 1.0 9 17
+ 0.16 3 0 cbr 1000 ------- 0 3.0 1.0 10 18
+ 0.16 3 0 cbr 1000 ------- 0 3.0 1.0 11 19
- 0.160533 3 0 cbr 1000 ------- 0 3.0 1.0 7 15
- 0.161067 3 0 cbr 1000 ------- 0 3.0 1.0 8 16
- 0.1616 3 0 cbr 1000 ------- 0 3.0 1.0 9 17
- 0.162133 3 0 cbr 1000 ------- 0 3.0 1.0 10 18
- 0.162667 3 0 cbr 1000 ------- 0 3.0 1.0 11 19
+ 0.18 2 0 cbr 1000 ------- 0 2.0 1.0 8 20
- 0.18 2 0 cbr 1000 ------- 0 2.0 1.0 8 20
+ 0.18 2 0 cbr 1000 ------- 0 2.0 1.0 9 21
+ 0.18 2 0 cbr 1000 ------- 0 2.0 1.0 10 22
+ 0.18 2 0 cbr 1000 ------- 0 2.0 1.0 11 23
+ 0.18 2 0 cbr 1000 ------- 0 2.0 1.0 12 24
+ 0.18 2 0 cbr 1000 ------- 0 2.0 1.0 13 25
+ 0.18 2 0 cbr 1000 ------- 0 2.0 1.0 14 26
+ 0.18 2 0 cbr 1000 ------- 0 2.0 1.0 15 27
- 0.180533 2 0 cbr 1000 ------- 0 2.0 1.0 9 21
- 0.181067 2 0 cbr 1000 ------- 0 2.0 1.0 10 22
- 0.1816 2 0 cbr 1000 ------- 0 2.0 1.0 11 23
- 0.182133 2 0 cbr 1000 ------- 0 2.0 1.0 12 24
- 0.182667 2 0 cbr 1000 ------- 0 2.0 1.0 13 25
- 0.1832 2 0 cbr 1000 ------- 0 2.0 1.0 14 26
- 0.183733 2 0 cbr 1000 ------- 0 2.0 1.0 15 27
r 0.200533 2 0 cbr 1000 ------- 0 2.0 1.0 0 0
+ 0.200533 0 1 cbr 1000 ------- 0 2.0 1.0 0 0
- 0.200533 0 1 cbr 1000 ------- 0 2.0 1.0 0 0
r 0.200533 3 0 cbr 1000 ------- 0 3.0 1.0 0 8
+ 0.200533 0 1 cbr 1000 ------- 0 3.0 1.0 0 8
r 0.201067 2 0 cbr 1000 ------- 0 2.0 1.0 1 1
+ 0.201067 0 1 cbr 1000 ------- 0 2.0 1.0 1 1
r 0.201067 3 0 cbr 1000 ------- 0 3.0 1.0 1 9
+ 0.201067 0 1 cbr 1000 ------- 0 3.0 1.0 1 9
- 0.201333 0 1 cbr 1000 ------- 0 3.0 1.0 0 8
r 0.2016 2 0 cbr 1000 ------- 0 2.0 1.0 2 2
+ 0.2016 0 1 cbr 1000 ------- 0 2.0 1.0 2 2
r 0.2016 3 0 cbr 1000 ------- 0 3.0 1.0 2 10
+ 0.2016 0 1 cbr 1000 ------- 0 3.0 1.0 2 10
r 0.202133 2 0 cbr 1000 ------- 0 2.0 1.0 3 3
+ 0.202133 0 1 cbr 1000 ------- 0 2.0 1.0 3 3
r 0.202133 3 0 cbr 1000 ------- 0 3.0 1.0 3 11
+ 0.202133 0 1 cbr 1000 ------- 0 3.0 1.0 3 11
- 0.202133 0 1 cbr 1000 ------- 0 2.0 1.0 1 1
r 0.202667 2 0 cbr 1000 ------- 0 2.0 1.0 4 4
+ 0.202667 0 1 cbr 1000 ------- 0 2.0 1.0 4 4
r 0.202667 3 0 cbr 1000 ------- 0 3.0 1.0 4 12
+ 0.202667 0 1 cbr 1000 ------- 0 3.0 1.0 4 12
- 0.202933 0 1 cbr 1000 ------- 0 3.0 1.0 1 9
r 0.2032 2 0 cbr 1000 ------- 0 2.0 1.0 5 5
+ 0.2032 0 1 cbr 1000 ------- 0 2.0 1.0 5 5
r 0.2032 3 0 cbr 1000 ------- 0 3.0 1.0 5 13
+ 0.2032 0 1 cbr 1000 ------- 0 3.0 1.0 5 13
r 0.203733 2 0 cbr 1000 ------- 0 2.0 1.0 6 6
+ 0.203733 0 1 cbr 1000 ------- 0 2.0 1.0 6 6
- 0.203733 0 1 cbr 1000 ------- 0 2.0 1.0 2 2
r 0.204267 2 0 cbr 1000 ------- 0 2.0 1.0 7 7
+ 0.204267 0 1 cbr 1000 ------- 0 2.0 1.0 7 7
- 0.204533 0 1 cbr 1000 ------- 0 3.0 1.0 2 10
- 0.205333 0 1 cbr 1000 ------- 0 2.0 1.0 3 3
- 0.206133 0 1 cbr 1000 ------- 0 3.0 1.0 3 11
- 0.206933 0 1 cbr 1000 ------- 0 2.0 1.0 4 4
- 0.207733 0 1 cbr 1000 ------- 0 3.0 1.0 4 12
- 0.208533 0 1 cbr 1000 ------- 0 2.0 1.0 5 5
- 0.209333 0 1 cbr 1000 ------- 0 3.0 1.0 5 13
- 0.210133 0 1 cbr 1000 ------- 0 2.0 1.0 6 6
- 0.210933 0 1 cbr 1000 ------- 0 2.0 1.0 7 7
+ 0.22 3 0 cbr 1000 ------- 0 3.0 1.0 12 28
- 0.22 3 0 cbr 1000 ------- 0 3.0 1.0 12 28
+ 0.22 3 0 cbr 1000 ------- 0 3.0 1.0 13 29
+ 0.22 3 0 cbr 1000 ------- 0 3.0 1.0 14 30
+ 0.22 3 0 cbr 1000 ------- 0 3.0 1.0 15 31
+ 0.22 3 0 cbr 1000 ------- 0 3.0 1.0 16 32
+ 0.22 3 0 cbr 1000 ------- 0 3.0 1.0 17 33
- 0.220533 3 0 cbr 1000 ------- 0 3.0 1.0 13 29
- 0.221067 3 0 cbr 1000 ------- 0 3.0 1.0 14 30
- 0.2216 3 0 cbr 1000 ------- 0 3.0 1.0 15 31
- 0.222133 3 0 cbr 1000 ------- 0 3.0 1.0 16 32
- 0.222667 3 0 cbr 1000 ------- 0 3.0 1.0 17 33
+ 0.26 2 0 cbr 1000 ------- 0 2.0 1.0 16 34
- 0.26 2 0 cbr 1000 ------- 0 2.0 1.0 16 34
+ 0.26 2 0 cbr 1000 ------- 0 2.0 1.0 17 35
+ 0.26 2 0 cbr 1000 ------- 0 2.0 1.0 18 36
+ 0.26 2 0 cbr 1000 ------- 0 2.0 1.0 19 37
+ 0.26 2 0 cbr 1000 ------- 0 2.0 1.0 20 38
+ 0.26 2 0 cbr 1000 ------- 0 2.0 1.0 21 39
+ 0.26 2 0 cbr 1000 ------- 0 2.0 1.0 22 40
+ 0.26 2 0 cbr 1000 ------- 0 2.0 1.0 23 41
r 0.260533 3 0 cbr 1000 ------- 0 3.0 1.0 6 14
+ 0.260533 0 1 cbr 1000 ------- 0 3.0 1.0 6 14
- 0.260533 0 1 cbr 1000 ------- 0 3.0 1.0 6 14
- 0.260533 2 0 cbr 1000 ------- 0 2.0 1.0 17 35
r 0.261067 3 0 cbr 1000 ------- 0 3.0 1.0 7 15
+ 0.261067 0 1 cbr 1000 ------- 0 3.0 1.0 7 15
- 0.261067 2 0 cbr 1000 ------- 0 2.0 1.0 18 36
- 0.261333 0 1 cbr 1000 ------- 0 3.0 1.0 7 15
r 0.2616 3 0 cbr 1000 ------- 0 3.0 1.0 8 16
+ 0.2616 0 1 cbr 1000 ------- 0 3.0 1.0 8 16
- 0.2616 2 0 cbr 1000 ------- 0 2.0 1.0 19 37
r 0.262133 3 0 cbr 1000 ------- 0 3.0 1.0 9 17
+ 0.262133 0 1 cbr 1000 ------- 0 3.0 1.0 9 17
- 0.262133 2 0 cbr 1000 ------- 0 2.0 1.0 20 38
- 0.262133 0 1 cbr 1000 ------- 0 3.0 1.0 8 16
r 0.262667 3 0 cbr 1000 ------- 0 3.0 1.0 10 18
+ 0.262667 0 1 cbr 1000 ------- 0 3.0 1.0 10 18
- 0.262667 2 0 cbr 1000 ------- 0 2.0 1.0 21 39
- 0.262933 0 1 cbr 1000 ------- 0 3.0 1.0 9 17
r 0.2632 3 0 cbr 1000 ------- 0 3.0 1.0 11 19
+ 0.2632 0 1 cbr 1000 ------- 0 3.0 1.0 11 19
- 0.2632 2 0 cbr 1000 ------- 0 2.0 1.0 22 40
- 0.263733 2 0 cbr 1000 ------- 0 2.0 1.0 23 41
- 0.263733 0 1 cbr 1000 ------- 0 3.0 1.0 10 18
- 0.264533 0 1 cbr 1000 ------- 0 3.0 1.0 11 19
+ 0.28 3 0 cbr 1000 ------- 0 3.0 1.0 18 42
- 0.28 3 0 cbr 1000 ------- 0 3.0 1.0 18 42
+ 0.28 3 0 cbr 1000 ------- 0 3.0 1.0 19 43
+ 0.28 3 0 cbr 1000 ------- 0 3.0 1.0 20 44
+ 0.28 3 0 cbr 1000 ------- 0 3.0 1.0 21 45
+ 0.28 3 0 cbr 1000 ------- 0 3.0 1.0 22 46
+ 0.28 3 0 cbr 1000 ------- 0 3.0 1.0 23 47
r 0.280533 2 0 cbr 1000 ------- 0 2.0 1.0 8 20
+ 0.280533 0 1 cbr 1000 ------- 0 2.0 1.0 8 20
- 0.280533 0 1 cbr 1000 ------- 0 2.0 1.0 8 20
- 0.280533 3 0 cbr 1000 ------- 0 3.0 1.0 19 43
r 0.281067 2 0 cbr 1000 ------- 0 2.0 1.0 9 21
+ 0.281067 0 1 cbr 1000 ------- 0 2.0 1.0 9 21
- 0.281067 3 0 cbr 1000 ------- 0 3.0 1.0 20 44
- 0.281333 0 1 cbr 1000 ------- 0 2.0 1.0 9 21
r 0.2816 2 0 cbr 1000 ------- 0 2.0 1.0 10 22
+ 0.2816 0 1 cbr 1000 ------- 0 2.0 1.0 10 22
- 0.2816 3 0 cbr 1000 ------- 0 3.0 1.0 21 45
r 0.282133 2 0 cbr 1000 ------- 0 2.0 1.0 11 23
+ 0.282133 0 1 cbr 1000 ------- 0 2.0 1.0 11 23
- 0.282133 0 1 cbr 1000 ------- 0 2.0 1.0 10 22
- 0.282133 3 0 cbr 1000 ------- 0 3.0 1.0 22 46
r 0.282667 2 0 cbr 1000 ------- 0 2.0 1.0 12 24
+ 0.282667 0 1 cbr 1000 ------- 0 2.0 1.0 12 24
- 0.282667 3 0 cbr 1000 ------- 0 3.0 1.0 23 47
- 0.282933 0 1 cbr 1000 ------- 0 2.0 1.0 11 23
r 0.2832 2 0 cbr 1000 ------- 0 2.0 1.0 13 25
+ 0.2832 0 1 cbr 1000 ------- 0 2.0 1.0 13 25
r 0.283733 2 0 cbr 1000 ------- 0 2.0 1.0 14 26
+ 0.283733 0 1 cbr 1000 ------- 0 2.0 1.0 14 26
- 0.283733 0 1 cbr 1000 ------- 0 2.0 1.0 12 24
r 0.284267 2 0 cbr 1000 ------- 0 2.0 1.0 15 27
+ 0.284267 0 1 cbr 1000 ------- 0 2.0 1.0 15 27
- 0.284533 0 1 cbr 1000 ------- 0 2.0 1.0 13 25
- 0.285333 0 1 cbr 1000 ------- 0 2.0 1.0 14 26
- 0.286133 0 1 cbr 1000 ------- 0 2.0 1.0 15 27
r 0.320533 3 0 cbr 1000 ------- 0 3.0 1.0 12 28
+ 0.320533 0 1 cbr 1000 ------- 0 3.0 1.0 12 28
- 0.320533 0 1 cbr 1000 ------- 0 3.0 1.0 12 28
r 0.321067 3 0 cbr 1000 ------- 0 3.0 1.0 13 29
+ 0.321067 0 1 cbr 1000 ------- 0 3.0 1.0 13 29
- 0.321333 0 1 cbr 1000 ------- 0 3.0 1.0 13 29
r 0.3216 3 0 cbr 1000 ------- 0 3.0 1.0 14 30
+ 0.3216 0 1 cbr 1000 ------- 0 3.0 1.0 14 30
r 0.322133 3 0 cbr 1000 ------- 0 3.0 1.0 15 31
+ 0.322133 0 1 cbr 1000 ------- 0 3.0 1.0 15 31
- 0.322133 0 1 cbr 1000 ------- 0 3.0 1.0 14 30
r 0.322667 3 0 cbr 1000 ------- 0 3.0 1.0 16 32
+ 0.322667 0 1 cbr 1000 ------- 0 3.0 1.0 16 32
- 0.322933 0 1 cbr 1000 ------- 0 3.0 1.0 15 31
r 0.3232 3 0 cbr 1000 ------- 0 3.0 1.0 17 33
+ 0.3232 0 1 cbr 1000 ------- 0 3.0 1.0 17 33
- 0.323733 0 1 cbr 1000 ------- 0 3.0 1.0 16 32
- 0.324533 0 1 cbr 1000 ------- 0 3.0 1.0 17 33
+ 0.34 2 0 cbr 1000 ------- 0 2.0 1.0 24 48
- 0.34 2 0 cbr 1000 ------- 0 2.0 1.0 24 48
+ 0.34 2 0 cbr 1000 ------- 0 2.0 1.0 25 49
+ 0.34 2 0 cbr 1000 ------- 0 2.0 1.0 26 50
+ 0.34 2 0 cbr 1000 ------- 0 2.0 1.0 27 51
+ 0.34 2 0 cbr 1000 ------- 0 2.0 1.0 28 52
+ 0.34 2 0 cbr 1000 ------- 0 2.0 1.0 29 53
+ 0.34 2 0 cbr 1000 ------- 0 2.0 1.0 30 54
+ 0.34 2 0 cbr 1000 ------- 0 2.0 1.0 31 55
+ 0.34 3 0 cbr 1000 ------- 0 3.0 1.0 24 56
- 0.34 3 0 cbr 1000 ------- 0 3.0 1.0 24 56
+ 0.34 3 0 cbr 1000 ------- 0 3.0 1.0 25 57
+ 0.34 3 0 cbr 1000 ------- 0 3.0 1.0 26 58
+ 0.34 3 0 cbr 1000 ------- 0 3.0 1.0 27 59
+ 0.34 3 0 cbr 1000 ------- 0 3.0 1.0 28 60
+ 0.34 3 0 cbr 1000 ------- 0 3.0 1.0 29 61
- 0.340533 2 0 cbr 1000 ------- 0 2.0 1.0 25 49
- 0.340533 3 0 cbr 1000 ------- 0 3.0 1.0 25 57
- 0.341067 2 0 cbr 1000 ------- 0 2.0 1.0 26 50
- 0.341067 3 0 cbr 1000 ------- 0 3.0 1.0 26 58
- 0.3416 2 0 cbr 1000 ------- 0 2.0 1.0 27 51
- 0.3416 3 0 cbr 1000 ------- 0 3.0 1.0 27 59
- 0.342133 2 0 cbr 1000 ------- 0 2.0 1.0 28 52
- 0.342133 3 0 cbr 1000 ------- 0 3.0 1.0 28 60
- 0.342667 2 0 cbr 1000 ------- 0 2.0 1.0 29 53
- 0.342667 3 0 cbr 1000 ------- 0 3.0 1.0 29 61
- 0.3432 2 0 cbr 1000 ------- 0 2.0 1.0 30 54
- 0.343733 2 0 cbr 1000 ------- 0 2.0 1.0 31 55
r 0.360533 2 0 cbr 1000 ------- 0 2.0 1.0 16 34
+ 0.360533 0 1 cbr 1000 ------- 0 2.0 1.0 16 34
- 0.360533 0 1 cbr 1000 ------- 0 2.0 1.0 16 34
r 0.361067 2 0 cbr 1000 ------- 0 2.0 1.0 17 35
+ 0.361067 0 1 cbr 1000 ------- 0 2.0 1.0 17 35
- 0.361333 0 1 cbr 1000 ------- 0 2.0 1.0 17 35
r 0.3616 2 0 cbr 1000 ------- 0 2.0 1.0 18 36
+ 0.3616 0 1 cbr 1000 ------- 0 2.0 1.0 18 36
r 0.362133 2 0 cbr 1000 ------- 0 2.0 1.0 19 37
+ 0.362133 0 1 cbr 1000 ------- 0 2.0 1.0 19 37
- 0.362133 0 1 cbr 1000 ------- 0 2.0 1.0 18 36
r 0.362667 2 0 cbr 1000 ------- 0 2.0 1.0 20 38
+ 0.362667 0 1 cbr 1000 ------- 0 2.0 1.0 20 38
- 0.362933 0 1 cbr 1000 ------- 0 2.0 1.0 19 37
r 0.3632 2 0 cbr 1000 ------- 0 2.0 1.0 21 39
+ 0.3632 0 1 cbr 1000 ------- 0 2.0 1.0 21 39
r 0.363733 2 0 cbr 1000 ------- 0 2.0 1.0 22 40
+ 0.363733 0 1 cbr 1000 ------- 0 2.0 1.0 22 40
- 0.363733 0 1 cbr 1000 ------- 0 2.0 1.0 20 38
r 0.364267 2 0 cbr 1000 ------- 0 2.0 1.0 23 41
+ 0.364267 0 1 cbr 1000 ------- 0 2.0 1.0 23 41
- 0.364533 0 1 cbr 1000 ------- 0 2.0 1.0 21 39
- 0.365333 0 1 cbr 1000 ------- 0 2.0 1.0 22 40
- 0.366133 0 1 cbr 1000 ------- 0 2.0 1.0 23 41
r 0.380533 3 0 cbr 1000 ------- 0 3.0 1.0 18 42
+ 0.380533 0 1 cbr 1000 ------- 0 3.0 1.0 18 42
- 0.380533 0 1 cbr 1000 ------- 0 3.0 1.0 18 42
r 0.381067 3 0 cbr 1000 ------- 0 3.0 1.0 19 43
+ 0.381067 0 1 cbr 1000 ------- 0 3.0 1.0 19 43
- 0.381333 0 1 cbr 1000 ------- 0 3.0 1.0 19 43
r 0.3816 3 0 cbr 1000 ------- 0 3.0 1.0 20 44
+ 0.3816 0 1 cbr 1000 ------- 0 3.0 1.0 20 44
r 0.382133 3 0 cbr 1000 ------- 0 3.0 1.0 21 45
+ 0.382133 0 1 cbr 1000 ------- 0 3.0 1.0 21 45
- 0.382133 0 1 cbr 1000 ------- 0 3.0 1.0 20 44
r 0.382667 3 0 cbr 1000 ------- 0 3.0 1.0 22 46
+ 0.382667 0 1 cbr 1000 ------- 0 3.0 1.0 22 46
- 0.382933 0 1 cbr 1000 ------- 0 3.0 1.0 21 45
r 0.3832 3 0 cbr 1000 ------- 0 3.0 1.0 23 47
+ 0.3832 0 1 cbr 1000 ------- 0 3.0 1.0 23 47
- 0.383733 0 1 cbr 1000 ------- 0 3.0 1.0 22 46
- 0.384533 0 1 cbr 1000 ------- 0 3.0 1.0 23 47
+ 0.4 3 0 cbr 1000 ------- 0 3.0 1.0 30 62
- 0.4 3 0 cbr 1000 ------- 0 3.0 1.0 30 62
+ 0.4 3 0 cbr 1000 ------- 0 3.0 1.0 31 63
+ 0.4 3 0 cbr 1000 ------- 0 3.0 1.0 32 64
+ 0.4 3 0 cbr 1000 ------- 0 3.0 1.0 33 65
+ 0.4 3 0 cbr 1000 ------- 0 3.0 1.0 34 66
+ 0.4 3 0 cbr 1000 ------- 0 3.0 1.0 35 67
- 0.400533 3 0 cbr 1000 ------- 0 3.0 1.0 31 63
- 0.401067 3 0 cbr 1000 ------- 0 3.0 1.0 32 64
r 0.401333 0 1 cbr 1000 ------- 0 2.0 1.0 0 0
- 0.4016 3 0 cbr 1000 ------- 0 3.0 1.0 33 65
r 0.402133 0 1 cbr 1000 ------- 0 3.0 1.0 0 8
- 0.402133 3 0 cbr 1000 ------- 0 3.0 1.0 34 66
- 0.402667 3 0 cbr 1000 ------- 0 3.0 1.0 35 67
r 0.402933 0 1 cbr 1000 ------- 0 2.0 1.0 1 1
r 0.403733 0 1 cbr 1000 ------- 0 3.0 1.0 1 9
r 0.404533 0 1 cbr 1000 ------- 0 2.0 1.0 2 2
r 0.405333 0 1 cbr 1000 ------- 0 3.0 1.0 2 10
r 0.406133 0 1 cbr 1000 ------- 0 2.0 1.0 3 3
r 0.406933 0 1 cbr 1000 ------- 0 3.0 1.0 3 11
r 0.407733 0 1 cbr 1000 ------- 0 2.0 1.0 4 4
r 0.408533 0 1 cbr 1000 ------- 0 3.0 1.0 4 12
r 0.409333 0 1 cbr 1000 ------- 0 2.0 1.0 5 5
r 0.410133 0 1 cbr 1000 ------- 0 3.0 1.0 5 13
r 0.410933 0 1 cbr 1000 ------- 0 2.0 1.0 6 6
r 0.411733 0 1 cbr 1000 ------- 0 2.0 1.0 7 7
+ 0.42 2 0 cbr 1000 ------- 0 2.0 1.0 32 68
- 0.42 2 0 cbr 1000 ------- 0 2.0 1.0 32 68
+ 0.42 2 0 cbr 1000 ------- 0 2.0 1.0 33 69
+ 0.42 2 0 cbr 1000 ------- 0 2.0 1.0 34 70
+ 0.42 2 0 cbr 1000 ------- 0 2.0 1.0 35 71
+ 0.42 2 0 cbr 1000 ------- 0 2.0 1.0 36 72
+ 0.42 2 0 cbr 1000 ------- 0 2.0 1.0 37 73
+ 0.42 2 0 cbr 1000 ------- 0 2.0 1.0 38 74
+ 0.42 2 0 cbr 1000 ------- 0 2.0 1.0 39 75
- 0.420533 2 0 cbr 1000 ------- 0 2.0 1.0 33 69
- 0.421067 2 0 cbr 1000 ------- 0 2.0 1.0 34 70
- 0.4216 2 0 cbr 1000 ------- 0 2.0 1.0 35 71
- 0.422133 2 0 cbr 1000 ------- 0 2.0 1.0 36 72
- 0.422667 2 0 cbr 1000 ------- 0 2.0 1.0 37 73
- 0.4232 2 0 cbr 1000 ------- 0 2.0 1.0 38 74
- 0.423733 2 0 cbr 1000 ------- 0 2.0 1.0 39 75
r 0.440533 2 0 cbr 1000 ------- 0 2.0 1.0 24 48
+ 0.440533 0 1 cbr 1000 ------- 0 2.0 1.0 24 48
- 0.440533 0 1 cbr 1000 ------- 0 2.0 1.0 24 48
r 0.440533 3 0 cbr 1000 ------- 0 3.0 1.0 24 56
+ 0.440533 0 1 cbr 1000 ------- 0 3.0 1.0 24 56
r 0.441067 2 0 cbr 1000 ------- 0 2.0 1.0 25 49
+ 0.441067 0 1 cbr 1000 ------- 0 2.0 1.0 25 49
r 0.441067 3 0 cbr 1000 ------- 0 3.0 1.0 25 57
+ 0.441067 0 1 cbr 1000 ------- 0 3.0 1.0 25 57
- 0.441333 0 1 cbr 1000 ------- 0 3.0 1.0 24 56
r 0.4416 2 0 cbr 1000 ------- 0 2.0 1.0 26 50
+ 0.4416 0 1 cbr 1000 ------- 0 2.0 1.0 26 50
r 0.4416 3 0 cbr 1000 ------- 0 3.0 1.0 26 58
+ 0.4416 0 1 cbr 1000 ------- 0 3.0 1.0 26 58
r 0.442133 2 0 cbr 1000 ------- 0 2.0 1.0 27 51
+ 0.442133 0 1 cbr 1000 ------- 0 2.0 1.0 27 51
r 0.442133 3 0 cbr 1000 ------- 0 3.0 1.0 27 59
+ 0.442133 0 1 cbr 1000 ------- 0 3.0 1.0 27 59
- 0.442133 0 1 cbr 1000 ------- 0 2.0 1.0 25 49
r 0.442667 2 0 cbr 1000 ------- 0 2.0 1.0 28 52
+ 0.442667 0 1 cbr 1000 ------- 0 2.0 1.0 28 52
r 0.442667 3 0 cbr 1000 ------- 0 3.0 1.0 28 60
+ 0.442667 0 1 cbr 1000 ------- 0 3.0 1.0 28 60
- 0.442933 0 1 cbr 1000 ------- 0 3.0 1.0 25 57
r 0.4432 2 0 cbr 1000 ------- 0 2.0 1.0 29 53
+ 0.4432 0 1 cbr 1000 ------- 0 2.0 1.0 29 53
r 0.4432 3 0 cbr 1000 ------- 0 3.0 1.0 29 61
+ 0.4432 0 1 cbr 1000 ------- 0 3.0 1.0 29 61
r 0.443733 2 0 cbr 1000 ------- 0 2.0 1.0 30 54
+ 0.443733 0 1 cbr 1000 ------- 0 2.0 1.0 30 54
- 0.443733 0 1 cbr 1000 ------- 0 2.0 1.0 26 50
r 0.444267 2 0 cbr 1000 ------- 0 2.0 1.0 31 55
+ 0.444267 0 1 cbr 1000 ------- 0 2.0 1.0 31 55
- 0.444533 0 1 cbr 1000 ------- 0 3.0 1.0 26 58
- 0.445333 0 1 cbr 1000 ------- 0 2.0 1.0 27 51
- 0.446133 0 1 cbr 1000 ------- 0 3.0 1.0 27 59
- 0.446933 0 1 cbr 1000 ------- 0 2.0 1.0 28 52
- 0.447733 0 1 cbr 1000 ------- 0 3.0 1.0 28 60
- 0.448533 0 1 cbr 1000 ------- 0 2.0 1.0 29 53
- 0.449333 0 1 cbr 1000 ------- 0 3.0 1.0 29 61
- 0.450133 0 1 cbr 1000 ------- 0 2.0 1.0 30 54
- 0.450933 0 1 cbr 1000 ------- 0 2.0 1.0 31 55
+ 0.46 3 0 cbr 1000 ------- 0 3.0 1.0 36 76
- 0.46 3 0 cbr 1000 ------- 0 3.0 1.0 36 76
+ 0.46 3 0 cbr 1000 ------- 0 3.0 1.0 37 77
+ 0.46 3 0 cbr 1000 ------- 0 3.0 1.0 38 78
+ 0.46 3 0 cbr 1000 ------- 0 3.0 1.0 39 79
+ 0.46 3 0 cbr 1000 ------- 0 3.0 1.0 40 80
+ 0.46 3 0 cbr 1000 ------- 0 3.0 1.0 41 81
- 0.460533 3 0 cbr 1000 ------- 0 3.0 1.0 37 77
- 0.461067 3 0 cbr 1000 ------- 0 3.0 1.0 38 78
r 0.461333 0 1 cbr 1000 ------- 0 3.0 1.0 6 14
- 0.4616 3 0 cbr 1000 ------- 0 3.0 1.0 39 79
- 0.462133 3 0 cbr 1000 ------- 0 3.0 1.0 40 80
r 0.462133 0 1 cbr 1000 ------- 0 3.0 1.0 7 15
- 0.462667 3 0 cbr 1000 ------- 0 3.0 1.0 41 81
r 0.462933 0 1 cbr 1000 ------- 0 3.0 1.0 8 16
r 0.463733 0 1 cbr 1000 ------- 0 3.0 1.0 9 17
r 0.464533 0 1 cbr 1000 ------- 0 3.0 1.0 10 18
r 0.465333 0 1 cbr 1000 ------- 0 3.0 1.0 11 19
r 0.481333 0 1 cbr 1000 ------- 0 2.0 1.0 8 20
r 0.482133 0 1 cbr 1000 ------- 0 2.0 1.0 9 21
r 0.482933 0 1 cbr 1000 ------- 0 2.0 1.0 10 22
r 0.483733 0 1 cbr 1000 ------- 0 2.0 1.0 11 23
r 0.484533 0 1 cbr 1000 ------- 0 2.0 1.0 12 24
r 0.485333 0 1 cbr 1000 ------- 0 2.0 1.0 13 25
r 0.486133 0 1 cbr 1000 ------- 0 2.0 1.0 14 26
r 0.486933 0 1 cbr 1000 ------- 0 2.0 1.0 15 27
+ 0.5 4 0 cbr 1000 ------- 0 4.0 1.0 0 82
- 0.5 4 0 cbr 1000 ------- 0 4.0 1.0 0 82
+ 0.5 4 0 cbr 1000 ------- 0 4.0 1.0 1 83
+ 0.5 4 0 cbr 1000 ------- 0 4.0 1.0 2 84
+ 0.5 4 0 cbr 1000 ------- 0 4.0 1.0 3 85
+ 0.5 4 0 cbr 1000 ------- 0 4.0 1.0 4 86
+ 0.5 4 0 cbr 1000 ------- 0 4.0 1.0 5 87
+ 0.5 4 0 cbr 1000 ------- 0 4.0 1.0 6 88
+ 0.5 4 0 cbr 1000 ------- 0 4.0 1.0 7 89
+ 0.5 4 0 cbr 1000 ------- 0 4.0 1.0 8 90
+ 0.5 4 0 cbr 1000 ------- 0 4.0 1.0 9 91
+ 0.5 4 0 cbr 1000 ------- 0 4.0 1.0 10 92
+ 0.5 4 0 cbr 1000 ------- 0 4.0 1.0 11 93
+ 0.5 4 0 cbr 1000 ------- 0 4.0 1.0 12 94
+ 0.5 4 0 cbr 1000 ------- 0 4.0 1.0 13 95
+ 0.5 4 0 cbr 1000 ------- 0 4.0 1.0 14 96
+ 0.5 4 0 cbr 1000 ------- 0 4.0 1.0 15 97
+ 0.5 4 0 cbr 1000 ------- 0 4.0 1.0 16 98
+ 0.5 4 0 cbr 1000 ------- 0 4.0 1.0 17 99
+ 0.5 4 0 cbr 1000 ------- 0 4.0 1.0 18 100
+ 0.5 4 0 cbr 1000 ------- 0 4.0 1.0 19 101
+ 0.5 4 0 cbr 1000 ------- 0 4.0 1.0 20 102
+ 0.5 4 0 cbr 1000 ------- 0 4.0 1.0 21 103
+ 0.5 4 0 cbr 1000 ------- 0 4.0 1.0 22 104
+ 0.5 4 0 cbr 1000 ------- 0 4.0 1.0 23 105
+ 0.5 2 0 cbr 1000 ------- 0 2.0 1.0 40 106
- 0.5 2 0 cbr 1000 ------- 0 2.0 1.0 40 106
+ 0.5 2 0 cbr 1000 ------- 0 2.0 1.0 41 107
+ 0.5 2 0 cbr 1000 ------- 0 2.0 1.0 42 108
+ 0.5 2 0 cbr 1000 ------- 0 2.0 1.0 43 109
+ 0.5 2 0 cbr 1000 ------- 0 2.0 1.0 44 110
+ 0.5 2 0 cbr 1000 ------- 0 2.0 1.0 45 111
+ 0.5 2 0 cbr 1000 ------- 0 2.0 1.0 46 112
+ 0.5 2 0 cbr 1000 ------- 0 2.0 1.0 47 113
r 0.500533 3 0 cbr 1000 ------- 0 3.0 1.0 30 62
+ 0.500533 0 1 cbr 1000 ------- 0 3.0 1.0 30 62
- 0.500533 0 1 cbr 1000 ------- 0 3.0 1.0 30 62
- 0.500533 4 0 cbr 1000 ------- 0 4.0 1.0 1 83
- 0.500533 2 0 cbr 1000 ------- 0 2.0 1.0 41 107
r 0.501067 3 0 cbr 1000 ------- 0 3.0 1.0 31 63
+ 0.501067 0 1 cbr 1000 ------- 0 3.0 1.0 31 63
- 0.501067 4 0 cbr 1000 ------- 0 4.0 1.0 2 84
- 0.501067 2 0 cbr 1000 ------- 0 2.0 1.0 42 108
- 0.501333 0 1 cbr 1000 ------- 0 3.0 1.0 31 63
r 0.5016 3 0 cbr 1000 ------- 0 3.0 1.0 32 64
+ 0.5016 0 1 cbr 1000 ------- 0 3.0 1.0 32 64
- 0.5016 4 0 cbr 1000 ------- 0 4.0 1.0 3 85
- 0.5016 2 0 cbr 1000 ------- 0 2.0 1.0 43 109
r 0.502133 3 0 cbr 1000 ------- 0 3.0 1.0 33 65
+ 0.502133 0 1 cbr 1000 ------- 0 3.0 1.0 33 65
- 0.502133 0 1 cbr 1000 ------- 0 3.0 1.0 32 64
- 0.502133 4 0 cbr 1000 ------- 0 4.0 1.0 4 86
- 0.502133 2 0 cbr 1000 ------- 0 2.0 1.0 44 110
r 0.502667 3 0 cbr 1000 ------- 0 3.0 1.0 34 66
+ 0.502667 0 1 cbr 1000 ------- 0 3.0 1.0 34 66
- 0.502667 4 0 cbr 1000 ------- 0 4.0 1.0 5 87
- 0.502667 2 0 cbr 1000 ------- 0 2.0 1.0 45 111
- 0.502933 0 1 cbr 1000 ------- 0 3.0 1.0 33 65
r 0.5032 3 0 cbr 1000 ------- 0 3.0 1.0 35 67
+ 0.5032 0 1 cbr 1000 ------- 0 3.0 1.0 35 67
- 0.5032 4 0 cbr 1000 ------- 0 4.0 1.0 6 88
- 0.5032 2 0 cbr 1000 ------- 0 2.0 1.0 46 112
- 0.503733 0 1 cbr 1000 ------- 0 3.0 1.0 34 66
- 0.503733 4 0 cbr 1000 ------- 0 4.0 1.0 7 89
- 0.503733 2 0 cbr 1000 ------- 0 2.0 1.0 47 113
- 0.504267 4 0 cbr 1000 ------- 0 4.0 1.0 8 90
- 0.504533 0 1 cbr 1000 ------- 0 3.0 1.0 35 67
- 0.5048 4 0 cbr 1000 ------- 0 4.0 1.0 9 91
- 0.505333 4 0 cbr 1000 ------- 0 4.0 1.0 10 92
- 0.505867 4 0 cbr 1000 ------- 0 4.0 1.0 11 93
- 0.5064 4 0 cbr 1000 ------- 0 4.0 1.0 12 94
- 0.506933 4 0 cbr 1000 ------- 0 4.0 1.0 13 95
- 0.507467 4 0 cbr 1000 ------- 0 4.0 1.0 14 96
- 0.508 4 0 cbr 1000 ------- 0 4.0 1.0 15 97
- 0.508533 4 0 cbr 1000 ------- 0 4.0 1.0 16 98
- 0.509067 4 0 cbr 1000 ------- 0 4.0 1.0 17 99
- 0.5096 4 0 cbr 1000 ------- 0 4.0 1.0 18 100
- 0.510133 4 0 cbr 1000 ------- 0 4.0 1.0 19 101
- 0.510667 4 0 cbr 1000 ------- 0 4.0 1.0 20 102
- 0.5112 4 0 cbr 1000 ------- 0 4.0 1.0 21 103
- 0.511733 4 0 cbr 1000 ------- 0 4.0 1.0 22 104
- 0.512267 4 0 cbr 1000 ------- 0 4.0 1.0 23 105
+ 0.52 3 0 cbr 1000 ------- 0 3.0 1.0 42 114
- 0.52 3 0 cbr 1000 ------- 0 3.0 1.0 42 114
+ 0.52 3 0 cbr 1000 ------- 0 3.0 1.0 43 115
+ 0.52 3 0 cbr 1000 ------- 0 3.0 1.0 44 116
+ 0.52 3 0 cbr 1000 ------- 0 3.0 1.0 45 117
+ 0.52 3 0 cbr 1000 ------- 0 3.0 1.0 46 118
+ 0.52 3 0 cbr 1000 ------- 0 3.0 1.0 47 119
+ 0.52 4 0 cbr 1000 ------- 0 4.0 1.0 24 120
- 0.52 4 0 cbr 1000 ------- 0 4.0 1.0 24 120
+ 0.52 4 0 cbr 1000 ------- 0 4.0 1.0 25 121
+ 0.52 4 0 cbr 1000 ------- 0 4.0 1.0 26 122
+ 0.52 4 0 cbr 1000 ------- 0 4.0 1.0 27 123
+ 0.52 4 0 cbr 1000 ------- 0 4.0 1.0 28 124
+ 0.52 4 0 cbr 1000 ------- 0 4.0 1.0 29 125
+ 0.52 4 0 cbr 1000 ------- 0 4.0 1.0 30 126
+ 0.52 4 0 cbr 1000 ------- 0 4.0 1.0 31 127
+ 0.52 4 0 cbr 1000 ------- 0 4.0 1.0 32 128
+ 0.52 4 0 cbr 1000 ------- 0 4.0 1.0 33 129
+ 0.52 4 0 cbr 1000 ------- 0 4.0 1.0 34 130
+ 0.52 4 0 cbr 1000 ------- 0 4.0 1.0 35 131
+ 0.52 4 0 cbr 1000 ------- 0 4.0 1.0 36 132
+ 0.52 4 0 cbr 1000 ------- 0 4.0 1.0 37 133
+ 0.52 4 0 cbr 1000 ------- 0 4.0 1.0 38 134
+ 0.52 4 0 cbr 1000 ------- 0 4.0 1.0 39 135
+ 0.52 4 0 cbr 1000 ------- 0 4.0 1.0 40 136
+ 0.52 4 0 cbr 1000 ------- 0 4.0 1.0 41 137
+ 0.52 4 0 cbr 1000 ------- 0 4.0 1.0 42 138
+ 0.52 4 0 cbr 1000 ------- 0 4.0 1.0 43 139
+ 0.52 4 0 cbr 1000 ------- 0 4.0 1.0 44 140
+ 0.52 4 0 cbr 1000 ------- 0 4.0 1.0 45 141
+ 0.52 4 0 cbr 1000 ------- 0 4.0 1.0 46 142
+ 0.52 4 0 cbr 1000 ------- 0 4.0 1.0 47 143
r 0.520533 2 0 cbr 1000 ------- 0 2.0 1.0 32 68
+ 0.520533 0 1 cbr 1000 ------- 0 2.0 1.0 32 68
- 0.520533 0 1 cbr 1000 ------- 0 2.0 1.0 32 68
- 0.520533 3 0 cbr 1000 ------- 0 3.0 1.0 43 115
- 0.520533 4 0 cbr 1000 ------- 0 4.0 1.0 25 121
r 0.521067 2 0 cbr 1000 ------- 0 2.0 1.0 33 69
+ 0.521067 0 1 cbr 1000 ------- 0 2.0 1.0 33 69
- 0.521067 3 0 cbr 1000 ------- 0 3.0 1.0 44 116
- 0.521067 4 0 cbr 1000 ------- 0 4.0 1.0 26 122
r 0.521333 0 1 cbr 1000 ------- 0 3.0 1.0 12 28
- 0.521333 0 1 cbr 1000 ------- 0 2.0 1.0 33 69
r 0.5216 2 0 cbr 1000 ------- 0 2.0 1.0 34 70
+ 0.5216 0 1 cbr 1000 ------- 0 2.0 1.0 34 70
- 0.5216 3 0 cbr 1000 ------- 0 3.0 1.0 45 117
- 0.5216 4 0 cbr 1000 ------- 0 4.0 1.0 27 123
r 0.522133 0 1 cbr 1000 ------- 0 3.0 1.0 13 29
r 0.522133 2 0 cbr 1000 ------- 0 2.0 1.0 35 71
+ 0.522133 0 1 cbr 1000 ------- 0 2.0 1.0 35 71
- 0.522133 0 1 cbr 1000 ------- 0 2.0 1.0 34 70
- 0.522133 3 0 cbr 1000 ------- 0 3.0 1.0 46 118
- 0.522133 4 0 cbr 1000 ------- 0 4.0 1.0 28 124
r 0.522667 2 0 cbr 1000 ------- 0 2.0 1.0 36 72
+ 0.522667 0 1 cbr 1000 ------- 0 2.0 1.0 36 72
- 0.522667 3 0 cbr 1000 ------- 0 3.0 1.0 47 119
- 0.522667 4 0 cbr 1000 ------- 0 4.0 1.0 29 125
r 0.522933 0 1 cbr 1000 ------- 0 3.0 1.0 14 30
- 0.522933 0 1 cbr 1000 ------- 0 2.0 1.0 35 71
r 0.5232 2 0 cbr 1000 ------- 0 2.0 1.0 37 73
+ 0.5232 0 1 cbr 1000 ------- 0 2.0 1.0 37 73
- 0.5232 4 0 cbr 1000 ------- 0 4.0 1.0 30 126
r 0.523733 0 1 cbr 1000 ------- 0 3.0 1.0 15 31
r 0.523733 2 0 cbr 1000 ------- 0 2.0 1.0 38 74
+ 0.523733 0 1 cbr 1000 ------- 0 2.0 1.0 38 74
- 0.523733 0 1 cbr 1000 ------- 0 2.0 1.0 36 72
- 0.523733 4 0 cbr 1000 ------- 0 4.0 1.0 31 127
r 0.524267 2 0 cbr 1000 ------- 0 2.0 1.0 39 75
+ 0.524267 0 1 cbr 1000 ------- 0 2.0 1.0 39 75
- 0.524267 4 0 cbr 1000 ------- 0 4.0 1.0 32 128
r 0.524533 0 1 cbr 1000 ------- 0 3.0 1.0 16 32
- 0.524533 0 1 cbr 1000 ------- 0 2.0 1.0 37 73
- 0.5248 4 0 cbr 1000 ------- 0 4.0 1.0 33 129
r 0.525333 0 1 cbr 1000 ------- 0 3.0 1.0 17 33
- 0.525333 0 1 cbr 1000 ------- 0 2.0 1.0 38 74
- 0.525333 4 0 cbr 1000 ------- 0 4.0 1.0 34 130
- 0.525867 4 0 cbr 1000 ------- 0 4.0 1.0 35 131
- 0.526133 0 1 cbr 1000 ------- 0 2.0 1.0 39 75
- 0.5264 4 0 cbr 1000 ------- 0 4.0 1.0 36 132
- 0.526933 4 0 cbr 1000 ------- 0 4.0 1.0 37 133
- 0.527467 4 0 cbr 1000 ------- 0 4.0 1.0 38 134
- 0.528 4 0 cbr 1000 ------- 0 4.0 1.0 39 135
- 0.528533 4 0 cbr 1000 ------- 0 4.0 1.0 40 136
- 0.529067 4 0 cbr 1000 ------- 0 4.0 1.0 41 137
- 0.5296 4 0 cbr 1000 ------- 0 4.0 1.0 42 138
- 0.530133 4 0 cbr 1000 ------- 0 4.0 1.0 43 139
- 0.530667 4 0 cbr 1000 ------- 0 4.0 1.0 44 140
- 0.5312 4 0 cbr 1000 ------- 0 4.0 1.0 45 141
- 0.531733 4 0 cbr 1000 ------- 0 4.0 1.0 46 142
- 0.532267 4 0 cbr 1000 ------- 0 4.0 1.0 47 143
+ 0.54 4 0 cbr 1000 ------- 0 4.0 1.0 48 144
- 0.54 4 0 cbr 1000 ------- 0 4.0 1.0 48 144
+ 0.54 4 0 cbr 1000 ------- 0 4.0 1.0 49 145
+ 0.54 4 0 cbr 1000 ------- 0 4.0 1.0 50 146
+ 0.54 4 0 cbr 1000 ------- 0 4.0 1.0 51 147
+ 0.54 4 0 cbr 1000 ------- 0 4.0 1.0 52 148
+ 0.54 4 0 cbr 1000 ------- 0 4.0 1.0 53 149
+ 0.54 4 0 cbr 1000 ------- 0 4.0 1.0 54 150
+ 0.54 4 0 cbr 1000 ------- 0 4.0 1.0 55 151
+ 0.54 4 0 cbr 1000 ------- 0 4.0 1.0 56 152
+ 0.54 4 0 cbr 1000 ------- 0 4.0 1.0 57 153
+ 0.54 4 0 cbr 1000 ------- 0 4.0 1.0 58 154
+ 0.54 4 0 cbr 1000 ------- 0 4.0 1.0 59 155
+ 0.54 4 0 cbr 1000 ------- 0 4.0 1.0 60 156
+ 0.54 4 0 cbr 1000 ------- 0 4.0 1.0 61 157
+ 0.54 4 0 cbr 1000 ------- 0 4.0 1.0 62 158
+ 0.54 4 0 cbr 1000 ------- 0 4.0 1.0 63 159
+ 0.54 4 0 cbr 1000 ------- 0 4.0 1.0 64 160
+ 0.54 4 0 cbr 1000 ------- 0 4.0 1.0 65 161
+ 0.54 4 0 cbr 1000 ------- 0 4.0 1.0 66 162
+ 0.54 4 0 cbr 1000 ------- 0 4.0 1.0 67 163
+ 0.54 4 0 cbr 1000 ------- 0 4.0 1.0 68 164
+ 0.54 4 0 cbr 1000 ------- 0 4.0 1.0 69 165
+ 0.54 4 0 cbr 1000 ------- 0 4.0 1.0 70 166
+ 0.54 4 0 cbr 1000 ------- 0 4.0 1.0 71 167
- 0.540533 4 0 cbr 1000 ------- 0 4.0 1.0 49 145
- 0.541067 4 0 cbr 1000 ------- 0 4.0 1.0 50 146
- 0.5416 4 0 cbr 1000 ------- 0 4.0 1.0 51 147
- 0.542133 4 0 cbr 1000 ------- 0 4.0 1.0 52 148
- 0.542667 4 0 cbr 1000 ------- 0 4.0 1.0 53 149
- 0.5432 4 0 cbr 1000 ------- 0 4.0 1.0 54 150
- 0.543733 4 0 cbr 1000 ------- 0 4.0 1.0 55 151
- 0.544267 4 0 cbr 1000 ------- 0 4.0 1.0 56 152
- 0.5448 4 0 cbr 1000 ------- 0 4.0 1.0 57 153
- 0.545333 4 0 cbr 1000 ------- 0 4.0 1.0 58 154
- 0.545867 4 0 cbr 1000 ------- 0 4.0 1.0 59 155
- 0.5464 4 0 cbr 1000 ------- 0 4.0 1.0 60 156
- 0.546933 4 0 cbr 1000 ------- 0 4.0 1.0 61 157
- 0.547467 4 0 cbr 1000 ------- 0 4.0 1.0 62 158
- 0.548 4 0 cbr 1000 ------- 0 4.0 1.0 63 159
- 0.548533 4 0 cbr 1000 ------- 0 4.0 1.0 64 160
- 0.549067 4 0 cbr 1000 ------- 0 4.0 1.0 65 161
- 0.5496 4 0 cbr 1000 ------- 0 4.0 1.0 66 162
- 0.550133 4 0 cbr 1000 ------- 0 4.0 1.0 67 163
- 0.550667 4 0 cbr 1000 ------- 0 4.0 1.0 68 164
- 0.5512 4 0 cbr 1000 ------- 0 4.0 1.0 69 165
- 0.551733 4 0 cbr 1000 ------- 0 4.0 1.0 70 166
- 0.552267 4 0 cbr 1000 ------- 0 4.0 1.0 71 167
+ 0.56 4 0 cbr 1000 ------- 0 4.0 1.0 72 168
- 0.56 4 0 cbr 1000 ------- 0 4.0 1.0 72 168
+ 0.56 4 0 cbr 1000 ------- 0 4.0 1.0 73 169
+ 0.56 4 0 cbr 1000 ------- 0 4.0 1.0 74 170
+ 0.56 4 0 cbr 1000 ------- 0 4.0 1.0 75 171
+ 0.56 4 0 cbr 1000 ------- 0 4.0 1.0 76 172
+ 0.56 4 0 cbr 1000 ------- 0 4.0 1.0 77 173
+ 0.56 4 0 cbr 1000 ------- 0 4.0 1.0 78 174
+ 0.56 4 0 cbr 1000 ------- 0 4.0 1.0 79 175
+ 0.56 4 0 cbr 1000 ------- 0 4.0 1.0 80 176
+ 0.56 4 0 cbr 1000 ------- 0 4.0 1.0 81 177
+ 0.56 4 0 cbr 1000 ------- 0 4.0 1.0 82 178
+ 0.56 4 0 cbr 1000 ------- 0 4.0 1.0 83 179
+ 0.56 4 0 cbr 1000 ------- 0 4.0 1.0 84 180
+ 0.56 4 0 cbr 1000 ------- 0 4.0 1.0 85 181
+ 0.56 4 0 cbr 1000 ------- 0 4.0 1.0 86 182
+ 0.56 4 0 cbr 1000 ------- 0 4.0 1.0 87 183
+ 0.56 4 0 cbr 1000 ------- 0 4.0 1.0 88 184
+ 0.56 4 0 cbr 1000 ------- 0 4.0 1.0 89 185
+ 0.56 4 0 cbr 1000 ------- 0 4.0 1.0 90 186
+ 0.56 4 0 cbr 1000 ------- 0 4.0 1.0 91 187
+ 0.56 4 0 cbr 1000 ------- 0 4.0 1.0 92 188
+ 0.56 4 0 cbr 1000 ------- 0 4.0 1.0 93 189
+ 0.56 4 0 cbr 1000 ------- 0 4.0 1.0 94 190
+ 0.56 4 0 cbr 1000 ------- 0 4.0 1.0 95 191
r 0.560533 3 0 cbr 1000 ------- 0 3.0 1.0 36 76
+ 0.560533 0 1 cbr 1000 ------- 0 3.0 1.0 36 76
- 0.560533 0 1 cbr 1000 ------- 0 3.0 1.0 36 76
- 0.560533 4 0 cbr 1000 ------- 0 4.0 1.0 73 169
r 0.561067 3 0 cbr 1000 ------- 0 3.0 1.0 37 77
+ 0.561067 0 1 cbr 1000 ------- 0 3.0 1.0 37 77
- 0.561067 4 0 cbr 1000 ------- 0 4.0 1.0 74 170
r 0.561333 0 1 cbr 1000 ------- 0 2.0 1.0 16 34
- 0.561333 0 1 cbr 1000 ------- 0 3.0 1.0 37 77
r 0.5616 3 0 cbr 1000 ------- 0 3.0 1.0 38 78
+ 0.5616 0 1 cbr 1000 ------- 0 3.0 1.0 38 78
- 0.5616 4 0 cbr 1000 ------- 0 4.0 1.0 75 171
r 0.562133 0 1 cbr 1000 ------- 0 2.0 1.0 17 35
r 0.562133 3 0 cbr 1000 ------- 0 3.0 1.0 39 79
+ 0.562133 0 1 cbr 1000 ------- 0 3.0 1.0 39 79
- 0.562133 0 1 cbr 1000 ------- 0 3.0 1.0 38 78
- 0.562133 4 0 cbr 1000 ------- 0 4.0 1.0 76 172
r 0.562667 3 0 cbr 1000 ------- 0 3.0 1.0 40 80
+ 0.562667 0 1 cbr 1000 ------- 0 3.0 1.0 40 80
- 0.562667 4 0 cbr 1000 ------- 0 4.0 1.0 77 173
r 0.562933 0 1 cbr 1000 ------- 0 2.0 1.0 18 36
- 0.562933 0 1 cbr 1000 ------- 0 3.0 1.0 39 79
r 0.5632 3 0 cbr 1000 ------- 0 3.0 1.0 41 81
+ 0.5632 0 1 cbr 1000 ------- 0 3.0 1.0 41 81
- 0.5632 4 0 cbr 1000 ------- 0 4.0 1.0 78 174